  256  256  200    2
  0.9949690E+01  0.1145750E-08  0.1145750E-08  0.2240470E-08  0.5000000E-15
  1.000000000000000E-004
  CAR 
 Ca2Al24O38                              
   1264     39    890
