Sat Sep 11 17:43:29 MST 2021
 running on   90 total cores
 distrk:  each k-point on   90 cores,    1 groups
 distr:  one band on    9 cores,   10 groups
 using from now: INCAR     
 vasp.5.4.4.18Apr17-6-g9f103f2a35 (build Sep 23 2020 14:43:34) complex          
  
 POSCAR found type information on POSCAR  Al Ca Mg O  Ti
 POSCAR found :  5 types and     256 ions
 scaLAPACK will be used

 ----------------------------------------------------------------------------- 
|                                                                             |
|  ADVICE TO THIS USER RUNNING 'VASP/VAMP'   (HEAR YOUR MASTER'S VOICE ...):  |
|                                                                             |
|      You have a (more or less) 'large supercell' and for larger cells       |
|      it might be more efficient to use real space projection operators      |
|      So try LREAL= Auto  in the INCAR   file.                               |
|      Mind: If you want to do a very accurate calculations keep the          |
|      reciprocal projection scheme          (i.e. LREAL=.FALSE.)             |
|                                                                             |
 ----------------------------------------------------------------------------- 

 LDA part: xc-table for Pade appr. of Perdew
 POSCAR, INCAR and KPOINTS ok, starting setup
 FFT: planning ...
 WAVECAR not read
 WARNING: random wavefunctions but no delay for mixing, default for NELMDL
 entering main loop
       N       E                     dE             d eps       ncg     rms          rms(c)
DAV:   1     0.187508996654E+05    0.18751E+05   -0.47589E+05153590   0.156E+03
DAV:   2     0.189830819937E+04   -0.16853E+05   -0.14250E+05149460   0.450E+02
DAV:   3    -0.181349426990E+04   -0.37118E+04   -0.34866E+04142090   0.210E+02
DAV:   4    -0.214101574881E+04   -0.32752E+03   -0.31939E+03177090   0.696E+01
DAV:   5    -0.216238268015E+04   -0.21367E+02   -0.21262E+02219340   0.181E+01    0.133E+02
DAV:   6    -0.165023852629E+04    0.51214E+03   -0.12897E+03201560   0.522E+01    0.533E+01
DAV:   7    -0.167379915317E+04   -0.23561E+02   -0.22855E+02174570   0.230E+01    0.451E+01
DAV:   8    -0.164823730376E+04    0.25562E+02   -0.35033E+01166760   0.122E+01    0.363E+01
DAV:   9    -0.168798338692E+04   -0.39746E+02   -0.49151E+01178280   0.106E+01    0.226E+01
DAV:  10    -0.179238392217E+04   -0.10440E+03   -0.71456E+01158320   0.943E+00    0.176E+01
DAV:  11    -0.190854039157E+04   -0.11616E+03   -0.17007E+02172270   0.134E+01    0.890E+00
DAV:  12    -0.192194066615E+04   -0.13400E+02   -0.26287E+01168530   0.663E+00    0.604E+00
DAV:  13    -0.192269809244E+04   -0.75743E+00   -0.69642E+00201090   0.367E+00    0.368E+00
DAV:  14    -0.192295593060E+04   -0.25784E+00   -0.13720E+00166550   0.170E+00    0.211E+00
DAV:  15    -0.192299165531E+04   -0.35725E-01   -0.46552E-01195880   0.929E-01    0.808E-01
DAV:  16    -0.192302785738E+04   -0.36202E-01   -0.85921E-02173320   0.428E-01    0.547E-01
DAV:  17    -0.192303986896E+04   -0.12012E-01   -0.19723E-02169580   0.229E-01    0.295E-01
DAV:  18    -0.192304266939E+04   -0.28004E-02   -0.11551E-02185110   0.170E-01    0.122E-01
DAV:  19    -0.192304395299E+04   -0.12836E-02   -0.62890E-03192270   0.108E-01    0.121E-01
DAV:  20    -0.192304380403E+04    0.14897E-03   -0.77780E-04198320   0.524E-02    0.558E-02
DAV:  21    -0.192304381059E+04   -0.65596E-05   -0.49596E-04190750   0.293E-02    0.166E-02
DAV:  22    -0.192304381408E+04   -0.34910E-05   -0.56067E-05173690   0.163E-02    0.841E-03
DAV:  23    -0.192304381474E+04   -0.66425E-06   -0.28242E-05180470   0.815E-03    0.689E-03
DAV:  24    -0.192304381285E+04    0.18918E-05   -0.50431E-06209390   0.336E-03    0.390E-03
DAV:  25    -0.192304381127E+04    0.15840E-05   -0.20191E-06188060   0.177E-03    0.161E-03
DAV:  26    -0.192304381072E+04    0.54167E-06   -0.28765E-07133080   0.103E-03    0.176E-03
DAV:  27    -0.192304381057E+04    0.15002E-06   -0.24569E-07117740   0.102E-03    0.884E-04
DAV:  28    -0.192304381061E+04   -0.35274E-07   -0.13909E-07 95500   0.604E-04
   1 F= -.19230438E+04 E0= -.19230438E+04  d E =-.192304E+04  mag=     0.0000
 curvature:   0.00 expect dE= 0.000E+00 dE for cont linesearch  0.000E+00
 trial: gam= 0.00000 g(F)=  0.213E-03 g(S)=  0.000E+00 ort = 0.000E+00 (trialstep = 0.100E+01)
 search vector abs. value=  0.213E-03
 bond charge predicted
       N       E                     dE             d eps       ncg     rms          rms(c)
DAV:   1    -0.192304385089E+04   -0.40311E-04   -0.28124E-02178470   0.216E-01    0.269E-02
DAV:   2    -0.192304395388E+04   -0.10300E-03   -0.11506E-03175420   0.424E-02    0.175E-02
DAV:   3    -0.192304394991E+04    0.39727E-05   -0.32498E-05186660   0.933E-03    0.126E-02
DAV:   4    -0.192304394609E+04    0.38144E-05   -0.95083E-06204670   0.650E-03    0.734E-03
DAV:   5    -0.192304394510E+04    0.99208E-06   -0.11401E-05171960   0.545E-03    0.411E-03
DAV:   6    -0.192304394519E+04   -0.91211E-07   -0.29574E-06175220   0.224E-03    0.419E-03
DAV:   7    -0.192304394510E+04    0.89538E-07   -0.13360E-07 93870   0.618E-04
   2 F= -.19230439E+04 E0= -.19230439E+04  d E =-.134493E-03  mag=     0.0000
 trial-energy change:   -0.000134  1 .order   -0.000149   -0.000213   -0.000084
 step:   1.6518(harm=  1.6518)  dis= 0.00077  next Energy= -1923.043987 (dE=-0.176E-03)
 bond charge predicted
       N       E                     dE             d eps       ncg     rms          rms(c)
DAV:   1    -0.192304393056E+04    0.14629E-04   -0.11944E-02177910   0.141E-01    0.170E-02
DAV:   2    -0.192304397534E+04   -0.44779E-04   -0.49655E-04175390   0.278E-02    0.124E-02
DAV:   3    -0.192304397354E+04    0.18040E-05   -0.14090E-05188550   0.615E-03    0.903E-03
DAV:   4    -0.192304397161E+04    0.19286E-05   -0.52337E-06210120   0.469E-03    0.506E-03
DAV:   5    -0.192304397122E+04    0.38621E-06   -0.48844E-06173870   0.348E-03    0.295E-03
DAV:   6    -0.192304397121E+04    0.13853E-07   -0.10661E-06162010   0.145E-03    0.259E-03
DAV:   7    -0.192304397114E+04    0.70970E-07   -0.24172E-07109510   0.759E-04
   3 F= -.19230440E+04 E0= -.19230440E+04  d E =-.160529E-03  mag=     0.0000
 curvature:  -0.83 expect dE=-0.159E-03 dE for cont linesearch -0.237E-08
 trial: gam= 0.90155 g(F)=  0.193E-03 g(S)=  0.000E+00 ort = 0.782E-06 (trialstep = 0.655E+00)
 search vector abs. value=  0.368E-03
 bond charge predicted
       N       E                     dE             d eps       ncg     rms          rms(c)
DAV:   1    -0.192304403097E+04   -0.59765E-04   -0.10111E-02201420   0.143E-01    0.190E-02
DAV:   2    -0.192304407906E+04   -0.48081E-04   -0.55257E-04166650   0.267E-02    0.131E-02
DAV:   3    -0.192304407840E+04    0.65741E-06   -0.25133E-05173290   0.868E-03    0.824E-03
DAV:   4    -0.192304407711E+04    0.12862E-05   -0.31309E-06173820   0.360E-03    0.563E-03
DAV:   5    -0.192304407621E+04    0.90027E-06   -0.60091E-06179970   0.352E-03    0.304E-03
DAV:   6    -0.192304407617E+04    0.42754E-07   -0.99914E-07161350   0.148E-03
   4 F= -.19230441E+04 E0= -.19230441E+04  d E =-.105030E-03  mag=     0.0000
 trial-energy change:   -0.000105  1 .order   -0.000106   -0.000127   -0.000086
 step:   2.0179(harm=  2.0179)  dis= 0.00165  next Energy= -1923.044167 (dE=-0.195E-03)
 bond charge predicted
       N       E                     dE             d eps       ncg     rms          rms(c)
DAV:   1    -0.192304395973E+04    0.11648E-03   -0.43630E-02200410   0.298E-01    0.406E-02
DAV:   2    -0.192304416735E+04   -0.20762E-03   -0.23944E-03167460   0.559E-02    0.274E-02
DAV:   3    -0.192304416423E+04    0.31185E-05   -0.11120E-04173390   0.183E-02    0.173E-02
DAV:   4    -0.192304415943E+04    0.48026E-05   -0.13620E-05172900   0.752E-03    0.119E-02
DAV:   5    -0.192304415663E+04    0.27965E-05   -0.27603E-05180720   0.751E-03    0.672E-03
DAV:   6    -0.192304415636E+04    0.26863E-06   -0.46404E-06178840   0.318E-03    0.580E-03
DAV:   7    -0.192304415589E+04    0.47461E-06   -0.17145E-06184850   0.202E-03    0.262E-03
DAV:   8    -0.192304415560E+04    0.28843E-06   -0.68724E-07169140   0.161E-03    0.102E-03
DAV:   9    -0.192304415555E+04    0.49302E-07   -0.36578E-07125830   0.997E-04
   5 F= -.19230442E+04 E0= -.19230442E+04  d E =-.184410E-03  mag=     0.0000
 curvature:  -1.92 expect dE=-0.501E-03 dE for cont linesearch -0.216E-07
 trial: gam= 1.37797 g(F)=  0.262E-03 g(S)=  0.000E+00 ort =-0.203E-05 (trialstep = 0.358E+00)
 search vector abs. value=  0.954E-03
 bond charge predicted
       N       E                     dE             d eps       ncg     rms          rms(c)
DAV:   1    -0.192304418935E+04   -0.33753E-04   -0.11524E-02198620   0.148E-01    0.175E-02
DAV:   2    -0.192304424136E+04   -0.52005E-04   -0.55057E-04170740   0.258E-02    0.104E-02
DAV:   3    -0.192304424096E+04    0.39548E-06   -0.16970E-05181060   0.642E-03    0.669E-03
DAV:   4    -0.192304423991E+04    0.10489E-05   -0.30917E-06219250   0.388E-03    0.418E-03
DAV:   5    -0.192304423950E+04    0.40971E-06   -0.25329E-06182310   0.292E-03    0.168E-03
DAV:   6    -0.192304423949E+04    0.10128E-07   -0.84274E-07160480   0.127E-03
   6 F= -.19230442E+04 E0= -.19230442E+04  d E =-.839437E-04  mag=     0.0000
 ZBRENT: can't locate minimum, use default step
 trial-energy change:   -0.000084  1 .order   -0.000085   -0.000093   -0.000077
 step:   1.4300(harm=  2.0880)  dis= 0.00212  next Energy= -1923.044426 (dE=-0.270E-03)
 bond charge predicted
       N       E                     dE             d eps       ncg     rms          rms(c)
DAV:   1    -0.192304397140E+04    0.26810E-03   -0.10352E-01197870   0.445E-01    0.523E-02
DAV:   2    -0.192304442744E+04   -0.45604E-03   -0.48761E-03170390   0.772E-02    0.311E-02
DAV:   3    -0.192304442082E+04    0.66221E-05   -0.15054E-04180710   0.192E-02    0.202E-02
DAV:   4    -0.192304441160E+04    0.92209E-05   -0.28018E-05220070   0.118E-02    0.126E-02
DAV:   5    -0.192304440731E+04    0.42857E-05   -0.24048E-05187500   0.919E-03    0.525E-03
DAV:   6    -0.192304440751E+04   -0.19064E-06   -0.87690E-06183330   0.394E-03    0.503E-03
DAV:   7    -0.192304440712E+04    0.38340E-06   -0.19954E-06191050   0.182E-03    0.227E-03
DAV:   8    -0.192304440677E+04    0.35563E-06   -0.19218E-07112030   0.119E-03    0.115E-03
DAV:   9    -0.192304440658E+04    0.18804E-06   -0.32761E-07133140   0.117E-03    0.603E-04
DAV:  10    -0.192304440653E+04    0.50088E-07   -0.11426E-07 94860   0.557E-04
   7 F= -.19230444E+04 E0= -.19230444E+04  d E =-.250979E-03  mag=     0.0000
 curvature:  -3.29 expect dE=-0.514E-03 dE for cont linesearch -0.183E-04
 ZBRENT: increasing intervall
 opt :   3.5751  next Energy= -1923.044259 (dE=-0.103E-03)
 bond charge predicted
       N       E                     dE             d eps       ncg     rms          rms(c)
DAV:   1    -0.192304256598E+04    0.18406E-02   -0.41349E-01196440   0.890E-01    0.104E-01
DAV:   2    -0.192304436763E+04   -0.18016E-02   -0.19290E-02169730   0.154E-01    0.618E-02
DAV:   3    -0.192304433957E+04    0.28067E-04   -0.60136E-04180840   0.383E-02    0.402E-02
DAV:   4    -0.192304430410E+04    0.35462E-04   -0.10903E-04218300   0.233E-02    0.252E-02
DAV:   5    -0.192304428703E+04    0.17073E-04   -0.96911E-05187170   0.183E-02    0.105E-02
DAV:   6    -0.192304428807E+04   -0.10360E-05   -0.34690E-05183490   0.780E-03    0.102E-02
DAV:   7    -0.192304428662E+04    0.14482E-05   -0.71801E-06197610   0.349E-03    0.477E-03
DAV:   8    -0.192304428553E+04    0.10881E-05   -0.10765E-06173310   0.219E-03    0.207E-03
DAV:   9    -0.192304428499E+04    0.54513E-06   -0.73385E-07159960   0.206E-03    0.987E-04
DAV:  10    -0.192304428486E+04    0.12171E-06   -0.41714E-07141190   0.109E-03    0.766E-04
DAV:  11    -0.192304428480E+04    0.67506E-07   -0.88022E-08 92370   0.599E-04
   8 F= -.19230443E+04 E0= -.19230443E+04  d E =-.129247E-03  mag=     0.0000
 curvature:  26.49 expect dE= 0.263E-01 dE for cont linesearch  0.126E-02
 ZBRENT: bracketing found
 ZBRENT: interpolating
 opt :   1.9768  next Energy= -1923.044426 (dE=-0.271E-03)
 bond charge predicted
       N       E                     dE             d eps       ncg     rms          rms(c)
DAV:   1    -0.192304350440E+04    0.78047E-03   -0.22922E-01196320   0.663E-01    0.776E-02
DAV:   2    -0.192304448921E+04   -0.98481E-03   -0.10595E-02168910   0.115E-01    0.459E-02
DAV:   3    -0.192304447013E+04    0.19078E-04   -0.33386E-04180340   0.287E-02    0.298E-02
DAV:   4    -0.192304445140E+04    0.18730E-04   -0.59971E-05215780   0.174E-02    0.187E-02
DAV:   5    -0.192304444153E+04    0.98668E-05   -0.55013E-05187080   0.137E-02    0.785E-03
DAV:   6    -0.192304444233E+04   -0.79829E-06   -0.19525E-05183640   0.583E-03    0.772E-03
DAV:   7    -0.192304444156E+04    0.77368E-06   -0.37430E-06197570   0.252E-03    0.375E-03
DAV:   8    -0.192304444135E+04    0.20748E-06   -0.68199E-07164540   0.157E-03    0.153E-03
DAV:   9    -0.192304444134E+04    0.10172E-07   -0.36524E-07138870   0.150E-03
   9 F= -.19230444E+04 E0= -.19230444E+04  d E =-.285789E-03  mag=     0.0000
 curvature:  -0.42 expect dE=-0.112E-03 dE for cont linesearch -0.135E-07
 trial: gam= 0.99955 g(F)=  0.266E-03 g(S)=  0.000E+00 ort =-0.555E-05 (trialstep = 0.538E+00)
 search vector abs. value=  0.121E-02
 bond charge predicted
       N       E                     dE             d eps       ncg     rms          rms(c)
DAV:   1    -0.192304440979E+04    0.31556E-04   -0.30596E-02197760   0.243E-01    0.317E-02
DAV:   2    -0.192304453500E+04   -0.12521E-03   -0.14338E-03160910   0.483E-02    0.212E-02
DAV:   3    -0.192304453439E+04    0.61220E-06   -0.97507E-05171370   0.179E-02    0.118E-02
DAV:   4    -0.192304453337E+04    0.10190E-05   -0.10695E-05181830   0.589E-03    0.899E-03
DAV:   5    -0.192304453305E+04    0.31703E-06   -0.10346E-05173320   0.480E-03    0.302E-03
DAV:   6    -0.192304453333E+04   -0.27471E-06   -0.20294E-06193000   0.220E-03    0.262E-03
DAV:   7    -0.192304453347E+04   -0.14575E-06   -0.15219E-06156860   0.194E-03    0.144E-03
DAV:   8    -0.192304453356E+04   -0.86919E-07   -0.23546E-07107120   0.772E-04
  10 F= -.19230445E+04 E0= -.19230445E+04  d E =-.922240E-04  mag=     0.0000
 trial-energy change:   -0.000092  1 .order   -0.000087   -0.000140   -0.000034
 step:   0.6650(harm=  0.7098)  dis= 0.00112  next Energy= -1923.044538 (dE=-0.963E-04)
 bond charge predicted
       N       E                     dE             d eps       ncg     rms          rms(c)
DAV:   1    -0.192304453685E+04   -0.33758E-05   -0.17080E-03198320   0.575E-02    0.751E-03
DAV:   2    -0.192304454462E+04   -0.77669E-05   -0.79036E-05160950   0.114E-02    0.504E-03
DAV:   3    -0.192304454467E+04   -0.49040E-07   -0.54797E-06171130   0.428E-03    0.274E-03
DAV:   4    -0.192304454478E+04   -0.11269E-06   -0.58530E-07156540   0.141E-03    0.207E-03
DAV:   5    -0.192304454503E+04   -0.25530E-06   -0.57503E-07151470   0.116E-03    0.650E-04
DAV:   6    -0.192304454510E+04   -0.64014E-07   -0.89562E-08 91770   0.550E-04
  11 F= -.19230445E+04 E0= -.19230445E+04  d E =-.103761E-03  mag=     0.0000
 curvature:  -1.53 expect dE=-0.533E-04 dE for cont linesearch -0.255E-06
 trial: gam= 0.06560 g(F)=  0.348E-04 g(S)=  0.000E+00 ort = 0.142E-04 (trialstep = 0.563E+00)
 search vector abs. value=  0.418E-04
 bond charge predicted
       N       E                     dE             d eps       ncg     rms          rms(c)
DAV:   1    -0.192304455674E+04   -0.11705E-04   -0.91519E-04190280   0.426E-02    0.628E-03
DAV:   2    -0.192304456026E+04   -0.35248E-05   -0.46761E-05165050   0.838E-03    0.404E-03
DAV:   3    -0.192304456015E+04    0.11144E-06   -0.26155E-06200230   0.235E-03    0.318E-03
DAV:   4    -0.192304455988E+04    0.27751E-06   -0.55367E-07158080   0.139E-03    0.166E-03
DAV:   5    -0.192304455987E+04    0.38854E-08   -0.56120E-07149160   0.136E-03
  12 F= -.19230446E+04 E0= -.19230446E+04  d E =-.147732E-04  mag=     0.0000
 trial-energy change:   -0.000015  1 .order   -0.000015   -0.000020   -0.000009
 step:   1.0194(harm=  1.0194)  dis= 0.00028  next Energy= -1923.044563 (dE=-0.182E-04)
 bond charge predicted
       N       E                     dE             d eps       ncg     rms          rms(c)
DAV:   1    -0.192304456679E+04   -0.69153E-05   -0.59850E-04190410   0.345E-02    0.554E-03
DAV:   2    -0.192304456908E+04   -0.22907E-05   -0.31772E-05169270   0.701E-03    0.330E-03
DAV:   3    -0.192304456902E+04    0.60973E-07   -0.18531E-06194270   0.196E-03    0.265E-03
DAV:   4    -0.192304456881E+04    0.21141E-06   -0.41093E-07149510   0.119E-03    0.136E-03
DAV:   5    -0.192304456882E+04   -0.97207E-08   -0.45758E-07147210   0.120E-03
  13 F= -.19230446E+04 E0= -.19230446E+04  d E =-.237204E-04  mag=     0.0000
 curvature:  -0.60 expect dE=-0.127E-04 dE for cont linesearch -0.758E-08
 trial: gam= 0.66309 g(F)=  0.213E-04 g(S)=  0.000E+00 ort =-0.728E-06 (trialstep = 0.655E+00)
 search vector abs. value=  0.387E-04
 bond charge predicted
       N       E                     dE             d eps       ncg     rms          rms(c)
DAV:   1    -0.192304457828E+04   -0.94733E-05   -0.18314E-03205030   0.602E-02    0.690E-03
DAV:   2    -0.192304458627E+04   -0.79835E-05   -0.83998E-05162150   0.104E-02    0.414E-03
DAV:   3    -0.192304458616E+04    0.10454E-06   -0.33118E-06180120   0.290E-03    0.272E-03
DAV:   4    -0.192304458611E+04    0.53682E-07   -0.42380E-07150780   0.154E-03
  14 F= -.19230446E+04 E0= -.19230446E+04  d E =-.172889E-04  mag=     0.0000
 trial-energy change:   -0.000017  1 .order   -0.000011   -0.000014   -0.000009
 step:   1.9401(harm=  1.9401)  dis= 0.00067  next Energy= -1923.044589 (dE=-0.202E-04)
 bond charge predicted
       N       E                     dE             d eps       ncg     rms          rms(c)
DAV:   1    -0.192304456442E+04    0.21746E-04   -0.69936E-03204820   0.118E-01    0.133E-02
DAV:   2    -0.192304459351E+04   -0.29090E-04   -0.31653E-04164040   0.202E-02    0.797E-03
DAV:   3    -0.192304459305E+04    0.45069E-06   -0.12817E-05185130   0.560E-03    0.533E-03
DAV:   4    -0.192304459261E+04    0.44449E-06   -0.16467E-06181100   0.297E-03    0.366E-03
DAV:   5    -0.192304459241E+04    0.19555E-06   -0.24633E-06168450   0.273E-03    0.140E-03
DAV:   6    -0.192304459250E+04   -0.88534E-07   -0.84742E-07160280   0.120E-03
  15 F= -.19230446E+04 E0= -.19230446E+04  d E =-.236844E-04  mag=     0.0000
 curvature:  -1.80 expect dE=-0.460E-04 dE for cont linesearch -0.125E-05
 ZBRENT: interpolating
 opt :   1.5894  next Energy= -1923.044593 (dE=-0.246E-04)
 bond charge predicted
       N       E                     dE             d eps       ncg     rms          rms(c)
DAV:   1    -0.192304459143E+04    0.98659E-06   -0.52639E-04205140   0.323E-02    0.347E-03
DAV:   2    -0.192304459335E+04   -0.19180E-05   -0.23524E-05161390   0.552E-03    0.235E-03
DAV:   3    -0.192304459329E+04    0.57655E-07   -0.92441E-07163320   0.151E-03
  16 F= -.19230446E+04 E0= -.19230446E+04  d E =-.244697E-04  mag=     0.0000
 curvature:  -1.31 expect dE=-0.241E-04 dE for cont linesearch -0.794E-07
 trial: gam= 0.85654 g(F)=  0.183E-04 g(S)=  0.000E+00 ort =-0.153E-05 (trialstep = 0.738E+00)
 search vector abs. value=  0.441E-04
 bond charge predicted
       N       E                     dE             d eps       ncg     rms          rms(c)
DAV:   1    -0.192304459501E+04   -0.16626E-05   -0.16320E-03215220   0.616E-02    0.775E-03
DAV:   2    -0.192304460334E+04   -0.83317E-05   -0.98353E-05155850   0.109E-02    0.458E-03
DAV:   3    -0.192304460333E+04    0.65484E-08   -0.49315E-06178390   0.377E-03    0.295E-03
DAV:   4    -0.192304460310E+04    0.23445E-06   -0.48525E-07152730   0.137E-03    0.200E-03
DAV:   5    -0.192304460290E+04    0.19553E-06   -0.68082E-07154180   0.126E-03    0.782E-04
DAV:   6    -0.192304460288E+04    0.19136E-07   -0.11178E-07 89590   0.607E-04
  17 F= -.19230446E+04 E0= -.19230446E+04  d E =-.959628E-05  mag=     0.0000
 trial-energy change:   -0.000010  1 .order   -0.000010   -0.000013   -0.000006
 step:   1.5190(harm=  1.5190)  dis= 0.00061  next Energy= -1923.044606 (dE=-0.129E-04)
 bond charge predicted
       N       E                     dE             d eps       ncg     rms          rms(c)
DAV:   1    -0.192304459777E+04    0.51302E-05   -0.18208E-03215080   0.651E-02    0.829E-03
DAV:   2    -0.192304460700E+04   -0.92278E-05   -0.10904E-04155660   0.117E-02    0.508E-03
DAV:   3    -0.192304460699E+04    0.13737E-07   -0.56915E-06177520   0.417E-03    0.322E-03
DAV:   4    -0.192304460673E+04    0.26042E-06   -0.57369E-07156220   0.145E-03    0.216E-03
DAV:   5    -0.192304460653E+04    0.19345E-06   -0.79270E-07157750   0.136E-03    0.819E-04
DAV:   6    -0.192304460652E+04    0.18248E-07   -0.12700E-07 91590   0.636E-04
  18 F= -.19230446E+04 E0= -.19230446E+04  d E =-.132272E-04  mag=     0.0000
 curvature:  -1.97 expect dE=-0.229E-04 dE for cont linesearch -0.294E-09
 trial: gam= 0.56618 g(F)=  0.117E-04 g(S)=  0.000E+00 ort =-0.813E-07 (trialstep = 0.895E+00)
 search vector abs. value=  0.257E-04
 bond charge predicted
       N       E                     dE             d eps       ncg     rms          rms(c)
DAV:   1    -0.192304460556E+04    0.97492E-06   -0.13975E-03213340   0.571E-02    0.622E-03
DAV:   2    -0.192304461295E+04   -0.73953E-05   -0.81492E-05162350   0.956E-03    0.393E-03
DAV:   3    -0.192304461283E+04    0.12637E-06   -0.33786E-06191470   0.263E-03    0.272E-03
DAV:   4    -0.192304461268E+04    0.14890E-06   -0.36082E-07144430   0.152E-03    0.174E-03
DAV:   5    -0.192304461257E+04    0.11201E-06   -0.66119E-07156540   0.140E-03    0.783E-04
DAV:   6    -0.192304461259E+04   -0.24433E-07   -0.18013E-07 97820   0.710E-04
  19 F= -.19230446E+04 E0= -.19230446E+04  d E =-.607577E-05  mag=     0.0000
 trial-energy change:   -0.000006  1 .order   -0.000006   -0.000010   -0.000001
 step:   0.9443(harm=  0.9613)  dis= 0.00028  next Energy= -1923.044613 (dE=-0.610E-05)
 bond charge predicted
       N       E                     dE             d eps       ncg     rms          rms(c)
DAV:   1    -0.192304461262E+04   -0.48021E-07   -0.43990E-06185930   0.325E-03    0.594E-04
DAV:   2    -0.192304461265E+04   -0.32713E-07   -0.27410E-07108280   0.674E-04
  20 F= -.19230446E+04 E0= -.19230446E+04  d E =-.613208E-05  mag=     0.0000
 curvature:  -1.00 expect dE=-0.343E-05 dE for cont linesearch -0.584E-10
 trial: gam= 0.31123 g(F)=  0.344E-05 g(S)=  0.000E+00 ort =-0.389E-07 (trialstep = 0.904E+00)
 search vector abs. value=  0.591E-05
 bond charge predicted
       N       E                     dE             d eps       ncg     rms          rms(c)
DAV:   1    -0.192304461274E+04   -0.12208E-06   -0.56486E-04190860   0.324E-02    0.388E-03
DAV:   2    -0.192304461465E+04   -0.19150E-05   -0.23813E-05160910   0.608E-03    0.278E-03
DAV:   3    -0.192304461463E+04    0.26092E-07   -0.11490E-06167660   0.192E-03    0.182E-03
DAV:   4    -0.192304461448E+04    0.14740E-06   -0.13236E-07112350   0.872E-04    0.128E-03
DAV:   5    -0.192304461433E+04    0.14676E-06   -0.39711E-07134960   0.994E-04    0.555E-04
DAV:   6    -0.192304461434E+04   -0.45984E-08   -0.88570E-08 83890   0.435E-04
  21 F= -.19230446E+04 E0= -.19230446E+04  d E =-.168874E-05  mag=     0.0000
 trial-energy change:   -0.000002  1 .order   -0.000002   -0.000003   -0.000000
 step:   0.9984(harm=  0.9984)  dis= 0.00011  next Energy= -1923.044614 (dE=-0.171E-05)
 bond charge predicted
       N       E                     dE             d eps       ncg     rms          rms(c)
DAV:   1    -0.192304461435E+04   -0.18845E-07   -0.62041E-06165430   0.339E-03    0.632E-04
DAV:   2    -0.192304461433E+04    0.17229E-07   -0.26776E-07109040   0.754E-04
  22 F= -.19230446E+04 E0= -.19230446E+04  d E =-.168575E-05  mag=     0.0000
 curvature:  -0.86 expect dE=-0.565E-06 dE for cont linesearch -0.130E-08
 trial: gam= 0.21148 g(F)=  0.657E-06 g(S)=  0.000E+00 ort =-0.944E-07 (trialstep = 0.923E+00)
 search vector abs. value=  0.881E-06
 bond charge predicted
       N       E                     dE             d eps       ncg     rms          rms(c)
DAV:   1    -0.192304461436E+04   -0.10637E-07   -0.92605E-05174240   0.126E-02    0.171E-03
DAV:   2    -0.192304461477E+04   -0.40959E-06   -0.35621E-06174500   0.269E-03    0.123E-03
DAV:   3    -0.192304461475E+04    0.21333E-07   -0.20597E-07127200   0.896E-04
  23 F= -.19230446E+04 E0= -.19230446E+04  d E =-.416127E-06  mag=     0.0000
 trial-energy change:   -0.000000  1 .order   -0.000000   -0.000001   -0.000000
 step:   1.0531(harm=  1.0531)  dis= 0.00003  next Energy= -1923.044615 (dE=-0.335E-06)
 bond charge predicted
       N       E                     dE             d eps       ncg     rms          rms(c)
DAV:   1    -0.192304461474E+04    0.34153E-07   -0.17072E-06147510   0.175E-03    0.524E-04
DAV:   2    -0.192304461476E+04   -0.19194E-07   -0.67191E-08 99250   0.465E-04
  24 F= -.19230446E+04 E0= -.19230446E+04  d E =-.422500E-06  mag=     0.0000
 curvature:  -0.73 expect dE=-0.245E-06 dE for cont linesearch -0.287E-08
 trial: gam= 0.61259 g(F)=  0.336E-06 g(S)=  0.000E+00 ort =-0.590E-07 (trialstep = 0.949E+00)
 search vector abs. value=  0.594E-06
 reached required accuracy - stopping structural energy minimisation
Tue Sep 14 12:16:29 MST 2021
Detailed performance metrics for this job will be available at https://metrics.hpc.arizona.edu/#job_viewer?action=show&realm=SUPREMM&resource_id=73&local_job_id=2045480 by 8am on 2021/09/15.
