Sat Sep  4 19:24:11 MST 2021
 running on   90 total cores
 distrk:  each k-point on   90 cores,    1 groups
 distr:  one band on    9 cores,   10 groups
 using from now: INCAR     
 vasp.5.4.4.18Apr17-6-g9f103f2a35 (build Sep 23 2020 14:43:34) complex          
  
 POSCAR found type information on POSCAR  Al Ca Mg O  Ti
 POSCAR found :  5 types and     256 ions
 scaLAPACK will be used

 ----------------------------------------------------------------------------- 
|                                                                             |
|  ADVICE TO THIS USER RUNNING 'VASP/VAMP'   (HEAR YOUR MASTER'S VOICE ...):  |
|                                                                             |
|      You have a (more or less) 'large supercell' and for larger cells       |
|      it might be more efficient to use real space projection operators      |
|      So try LREAL= Auto  in the INCAR   file.                               |
|      Mind: If you want to do a very accurate calculations keep the          |
|      reciprocal projection scheme          (i.e. LREAL=.FALSE.)             |
|                                                                             |
 ----------------------------------------------------------------------------- 

 LDA part: xc-table for Pade appr. of Perdew
 POSCAR, INCAR and KPOINTS ok, starting setup
 FFT: planning ...
 WAVECAR not read
 entering main loop
       N       E                     dE             d eps       ncg     rms          rms(c)
DAV:   1     0.187455361361E+05    0.18746E+05   -0.47590E+05153590   0.156E+03
DAV:   2     0.189828790660E+04   -0.16847E+05   -0.14244E+05149390   0.450E+02
DAV:   3    -0.181415410802E+04   -0.37124E+04   -0.34870E+04142090   0.210E+02
DAV:   4    -0.214134565510E+04   -0.32719E+03   -0.31917E+03177380   0.696E+01
DAV:   5    -0.216240967123E+04   -0.21064E+02   -0.20961E+02219430   0.180E+01    0.133E+02
DAV:   6    -0.165043375097E+04    0.51198E+03   -0.12894E+03201660   0.522E+01    0.533E+01
DAV:   7    -0.167417583533E+04   -0.23742E+02   -0.22815E+02174520   0.230E+01    0.451E+01
DAV:   8    -0.164860357145E+04    0.25572E+02   -0.35020E+01166900   0.122E+01    0.363E+01
DAV:   9    -0.168839618404E+04   -0.39793E+02   -0.49165E+01177870   0.106E+01    0.226E+01
DAV:  10    -0.179257755898E+04   -0.10418E+03   -0.71294E+01158030   0.942E+00    0.176E+01
DAV:  11    -0.190859512577E+04   -0.11602E+03   -0.16995E+02172260   0.134E+01    0.890E+00
DAV:  12    -0.192192654677E+04   -0.13331E+02   -0.26145E+01167970   0.662E+00    0.605E+00
DAV:  13    -0.192269578386E+04   -0.76924E+00   -0.69818E+00201340   0.368E+00    0.369E+00
DAV:  14    -0.192295400655E+04   -0.25822E+00   -0.13764E+00166540   0.171E+00    0.211E+00
DAV:  15    -0.192299017714E+04   -0.36171E-01   -0.46692E-01196220   0.929E-01    0.808E-01
DAV:  16    -0.192302645016E+04   -0.36273E-01   -0.85916E-02173400   0.428E-01    0.548E-01
DAV:  17    -0.192303841214E+04   -0.11962E-01   -0.19612E-02169190   0.230E-01    0.296E-01
DAV:  18    -0.192304121411E+04   -0.28020E-02   -0.11725E-02185170   0.171E-01    0.122E-01
DAV:  19    -0.192304250245E+04   -0.12883E-02   -0.63142E-03191730   0.108E-01    0.122E-01
DAV:  20    -0.192304234798E+04    0.15447E-03   -0.78254E-04198820   0.526E-02    0.563E-02
DAV:  21    -0.192304235472E+04   -0.67415E-05   -0.50635E-04190740   0.296E-02    0.166E-02
DAV:  22    -0.192304235818E+04   -0.34568E-05   -0.56098E-05173300   0.163E-02    0.848E-03
DAV:  23    -0.192304235884E+04   -0.65689E-06   -0.28686E-05180500   0.825E-03    0.686E-03
DAV:  24    -0.192304235695E+04    0.18902E-05   -0.51824E-06210110   0.339E-03    0.394E-03
DAV:  25    -0.192304235534E+04    0.16010E-05   -0.20075E-06188040   0.176E-03    0.159E-03
DAV:  26    -0.192304235480E+04    0.53938E-06   -0.28929E-07132840   0.103E-03    0.176E-03
DAV:  27    -0.192304235466E+04    0.14459E-06   -0.23864E-07116940   0.102E-03    0.894E-04
DAV:  28    -0.192304235470E+04   -0.35536E-07   -0.14038E-07 95490   0.606E-04
   1 F= -.19230424E+04 E0= -.19230424E+04  d E =-.192304E+04  mag=     0.0000
 curvature:   0.00 expect dE= 0.000E+00 dE for cont linesearch  0.000E+00
 trial: gam= 0.00000 g(F)=  0.205E-02 g(S)=  0.000E+00 ort = 0.000E+00 (trialstep = 0.100E+01)
 search vector abs. value=  0.205E-02
 bond charge predicted
       N       E                     dE             d eps       ncg     rms          rms(c)
DAV:   1    -0.192304220618E+04    0.14848E-03   -0.53040E-01150180   0.856E-01    0.120E-01
DAV:   2    -0.192304339067E+04   -0.11845E-02   -0.15113E-02178530   0.182E-01    0.925E-02
DAV:   3    -0.192304327437E+04    0.11629E-03   -0.91189E-04165930   0.610E-02    0.494E-02
DAV:   4    -0.192304323409E+04    0.40285E-04   -0.14866E-04176040   0.227E-02    0.371E-02
DAV:   5    -0.192304320534E+04    0.28743E-04   -0.15014E-04173530   0.180E-02    0.876E-03
DAV:   6    -0.192304320923E+04   -0.38863E-05   -0.39119E-05196040   0.814E-03    0.624E-03
DAV:   7    -0.192304321019E+04   -0.96115E-06   -0.47991E-06191170   0.308E-03    0.387E-03
DAV:   8    -0.192304321029E+04   -0.96712E-07   -0.65923E-07168210   0.162E-03
   2 F= -.19230432E+04 E0= -.19230432E+04  d E =-.855593E-03  mag=     0.0000
 trial-energy change:   -0.000856  1 .order   -0.000845   -0.002050    0.000359
 step:   0.8541(harm=  0.8509)  dis= 0.00127  next Energy= -1923.043236 (dE=-0.882E-03)
 bond charge predicted
       N       E                     dE             d eps       ncg     rms          rms(c)
DAV:   1    -0.192304321976E+04   -0.95683E-05   -0.11278E-02150940   0.125E-01    0.171E-02
DAV:   2    -0.192304324215E+04   -0.22390E-04   -0.31899E-04178290   0.265E-02    0.137E-02
DAV:   3    -0.192304323952E+04    0.26339E-05   -0.18910E-05166590   0.878E-03    0.748E-03
DAV:   4    -0.192304323804E+04    0.14793E-05   -0.31958E-06174120   0.327E-03    0.557E-03
DAV:   5    -0.192304323650E+04    0.15400E-05   -0.30846E-06167820   0.260E-03    0.129E-03
DAV:   6    -0.192304323629E+04    0.20271E-06   -0.78632E-07157330   0.117E-03    0.801E-04
DAV:   7    -0.192304323613E+04    0.16578E-06   -0.61817E-08 86960   0.410E-04    0.450E-04
DAV:   8    -0.192304323606E+04    0.66400E-07   -0.13919E-08 83520   0.251E-04
   3 F= -.19230432E+04 E0= -.19230432E+04  d E =-.881367E-03  mag=     0.0000
 curvature:  -0.43 expect dE=-0.278E-03 dE for cont linesearch -0.593E-08
 trial: gam= 0.32202 g(F)=  0.655E-03 g(S)=  0.000E+00 ort =-0.535E-05 (trialstep = 0.971E+00)
 search vector abs. value=  0.864E-03
 bond charge predicted
       N       E                     dE             d eps       ncg     rms          rms(c)
DAV:   1    -0.192304321801E+04    0.18117E-04   -0.16324E-01159030   0.484E-01    0.599E-02
DAV:   2    -0.192304362764E+04   -0.40963E-03   -0.49562E-03191470   0.958E-02    0.391E-02
DAV:   3    -0.192304359566E+04    0.31980E-04   -0.15126E-04198870   0.214E-02    0.275E-02
DAV:   4    -0.192304357024E+04    0.25427E-04   -0.37866E-05224850   0.142E-02    0.182E-02
DAV:   5    -0.192304355115E+04    0.19091E-04   -0.52116E-05202080   0.147E-02    0.752E-03
DAV:   6    -0.192304355149E+04   -0.34491E-06   -0.27094E-05192060   0.706E-03    0.750E-03
DAV:   7    -0.192304355052E+04    0.97154E-06   -0.74081E-06198620   0.377E-03    0.400E-03
DAV:   8    -0.192304354958E+04    0.94192E-06   -0.11547E-06193190   0.257E-03    0.240E-03
DAV:   9    -0.192304354913E+04    0.45136E-06   -0.83436E-07166400   0.201E-03    0.836E-04
DAV:  10    -0.192304354911E+04    0.14828E-07   -0.53145E-07141800   0.909E-04
   4 F= -.19230435E+04 E0= -.19230435E+04  d E =-.313049E-03  mag=     0.0000
 trial-energy change:   -0.000313  1 .order   -0.000309   -0.000634    0.000016
 step:   0.9478(harm=  0.9469)  dis= 0.00097  next Energy= -1923.043549 (dE=-0.313E-03)
 bond charge predicted
       N       E                     dE             d eps       ncg     rms          rms(c)
DAV:   1    -0.192304354912E+04    0.92696E-08   -0.91896E-05162380   0.115E-02    0.149E-03
DAV:   2    -0.192304354929E+04   -0.17049E-06   -0.28082E-06192840   0.231E-03    0.935E-04
DAV:   3    -0.192304354923E+04    0.52969E-07   -0.62708E-08 91670   0.505E-04
   5 F= -.19230435E+04 E0= -.19230435E+04  d E =-.313172E-03  mag=     0.0000
 curvature:  -0.63 expect dE=-0.241E-03 dE for cont linesearch -0.212E-07
 trial: gam= 0.59263 g(F)=  0.385E-03 g(S)=  0.000E+00 ort =-0.541E-05 (trialstep = 0.966E+00)
 search vector abs. value=  0.682E-03
 bond charge predicted
       N       E                     dE             d eps       ncg     rms          rms(c)
DAV:   1    -0.192304353268E+04    0.16610E-04   -0.88941E-02172980   0.378E-01    0.487E-02
DAV:   2    -0.192304382487E+04   -0.29220E-03   -0.33277E-03179050   0.764E-02    0.278E-02
DAV:   3    -0.192304381952E+04    0.53512E-05   -0.11976E-04187950   0.172E-02    0.204E-02
DAV:   4    -0.192304381321E+04    0.63104E-05   -0.18548E-05183730   0.832E-03    0.121E-02
DAV:   5    -0.192304381081E+04    0.23970E-05   -0.24545E-05165790   0.741E-03    0.603E-03
DAV:   6    -0.192304381082E+04   -0.82073E-08   -0.48584E-06176430   0.366E-03    0.486E-03
DAV:   7    -0.192304381067E+04    0.15294E-06   -0.32414E-06184400   0.278E-03    0.163E-03
DAV:   8    -0.192304381071E+04   -0.36918E-07   -0.61808E-07138950   0.103E-03
   6 F= -.19230438E+04 E0= -.19230438E+04  d E =-.261472E-03  mag=     0.0000
 trial-energy change:   -0.000261  1 .order   -0.000241   -0.000369   -0.000113
 step:   1.2291(harm=  1.3902)  dis= 0.00089  next Energy= -1923.043826 (dE=-0.277E-03)
 bond charge predicted
       N       E                     dE             d eps       ncg     rms          rms(c)
DAV:   1    -0.192304381050E+04    0.17253E-06   -0.65932E-03173230   0.103E-01    0.135E-02
DAV:   2    -0.192304383290E+04   -0.22403E-04   -0.24580E-04179150   0.208E-02    0.753E-03
DAV:   3    -0.192304383258E+04    0.32072E-06   -0.90223E-06187560   0.475E-03    0.549E-03
DAV:   4    -0.192304383228E+04    0.30012E-06   -0.13217E-06179200   0.227E-03    0.333E-03
DAV:   5    -0.192304383218E+04    0.95126E-07   -0.18769E-06163180   0.204E-03    0.163E-03
Detailed performance metrics for this job will be available at https://metrics.hpc.arizona.edu/#job_viewer?action=show&realm=SUPREMM&resource_id=73&local_job_id=2006706 by 8am on 2021/09/12.
