Ca2Al24O38                              
           1
    11.457499    0.000000    0.000000
    -5.728749    9.922485    0.000000
     0.000000    0.000000   22.404704
   Al   Ca   Mg   O    Ti
  64   8  16 152  16
Direct configuration=     1
   0.00000135  0.99999865  0.00031218
   0.99999865  0.00000135  0.50031218
   0.00000135  0.49999866  0.00031219
   0.99999865  0.50000134  0.50031219
   0.50000134  0.99999865  0.00031219
   0.49999866  0.00000135  0.50031219
   0.50000134  0.49999865  0.00031219
   0.49999866  0.50000134  0.50031219
   0.99999875  0.00000125  0.23884900
   0.00000125  0.99999875  0.73884898
   0.99999885  0.50000139  0.23884899
   0.00000115  0.49999861  0.73884897
   0.49999861  0.00000115  0.23884899
   0.50000139  0.99999885  0.73884897
   0.49999868  0.50000132  0.23884898
   0.50000132  0.49999868  0.73884896
   0.41674910  0.08325087  0.10510733
   0.41674909  0.33349428  0.10510702
   0.16650593  0.08325099  0.10510701
   0.08325088  0.41674912  0.60510735
   0.08325099  0.16650593  0.60510703
   0.33349429  0.41674912  0.60510705
   0.08182446  0.41817555  0.89491983
   0.33635445  0.41817519  0.89492140
   0.08182491  0.16364575  0.89492142
   0.41817552  0.08182445  0.39491978
   0.16364574  0.08182491  0.39492137
   0.41817516  0.33635444  0.39492136
   0.41674905  0.58325091  0.10510737
   0.41674898  0.83349401  0.10510705
   0.16650596  0.58325102  0.10510705
   0.08325088  0.91674907  0.60510732
   0.08325087  0.66650571  0.60510702
   0.33349430  0.91674908  0.60510702
   0.08182446  0.91817549  0.89491985
   0.33635445  0.91817514  0.89492143
   0.08182480  0.66364555  0.89492143
   0.41817548  0.58182448  0.39491975
   0.16364577  0.58182493  0.39492134
   0.41817506  0.83635421  0.39492134
   0.91674909  0.08325088  0.10510730
   0.91674910  0.33349431  0.10510700
   0.66650570  0.08325087  0.10510700
   0.58325095  0.41674908  0.60510739
   0.58325102  0.16650598  0.60510708
   0.83349399  0.41674898  0.60510708
   0.58182452  0.41817551  0.89491979
   0.83635418  0.41817506  0.89492138
   0.58182494  0.16364579  0.89492138
   0.91817551  0.08182446  0.39491981
   0.66364554  0.08182480  0.39492139
   0.91817516  0.33635447  0.39492139
   0.91674909  0.58325087  0.10510733
   0.91674900  0.83349407  0.10510701
   0.66650573  0.58325087  0.10510702
   0.58325088  0.91674907  0.60510735
   0.58325090  0.66650574  0.60510705
   0.83349401  0.91674895  0.60510703
   0.58182445  0.91817549  0.89491983
   0.83635420  0.91817503  0.89492142
   0.58182483  0.66364558  0.89492140
   0.91817552  0.58182445  0.39491978
   0.66364557  0.58182481  0.39492136
   0.91817508  0.83635425  0.39492137
   0.33330571  0.16669431  0.25943700
   0.16669432  0.33330574  0.75943704
   0.33330573  0.66669427  0.25943699
   0.16669435  0.83330565  0.75943704
   0.83330557  0.16669433  0.25943700
   0.66669427  0.33330575  0.75943704
   0.83330564  0.66669428  0.25943700
   0.66669432  0.83330567  0.75943704
   0.16666784  0.33333229  0.02593427
   0.33333227  0.16666784  0.52593427
   0.33333440  0.16666570  0.97405480
   0.16666571  0.33333442  0.47405480
   0.16666781  0.83333219  0.02593429
   0.33333222  0.66666778  0.52593425
   0.33333435  0.66666565  0.97405483
   0.16666568  0.83333433  0.47405478
   0.66666779  0.33333223  0.02593425
   0.83333212  0.16666779  0.52593429
   0.83333425  0.16666565  0.97405478
   0.66666566  0.33333436  0.47405483
   0.66666776  0.83333215  0.02593427
   0.83333211  0.66666773  0.52593427
   0.83333425  0.66666560  0.97405480
   0.66666563  0.83333428  0.47405480
   0.00000085  0.99999915  0.15331258
   0.99999915  0.00000085  0.65331256
   0.00000064  0.99999936  0.85025938
   0.99999936  0.00000064  0.35025932
   0.00000081  0.49999909  0.15331256
   0.99999919  0.50000090  0.65331253
   0.00000067  0.49999942  0.85025941
   0.99999932  0.50000057  0.35025934
   0.50000090  0.99999919  0.15331256
   0.49999910  0.00000081  0.65331253
   0.50000058  0.99999932  0.85025941
   0.49999942  0.00000068  0.35025934
   0.50000088  0.49999911  0.15331254
   0.49999912  0.50000088  0.65331252
   0.50000060  0.49999940  0.85025942
   0.49999940  0.50000060  0.35025935
   0.16666724  0.33333271  0.93759629
   0.33333269  0.16666723  0.43759629
   0.33333487  0.16666504  0.06192676
   0.16666505  0.33333489  0.56192674
   0.16666726  0.83333274  0.93759626
   0.33333271  0.66666729  0.43759634
   0.33333489  0.66666511  0.06192670
   0.16666507  0.83333493  0.56192679
   0.66666730  0.33333273  0.93759634
   0.83333267  0.16666724  0.43759626
   0.83333485  0.16666505  0.06192680
   0.66666512  0.33333491  0.56192668
   0.66666734  0.83333275  0.93759629
   0.83333272  0.66666731  0.43759629
   0.83333491  0.66666513  0.06192676
   0.66666517  0.83333494  0.56192674
   0.08933674  0.41066320  0.24951354
   0.08935244  0.17867220  0.24951424
   0.32132756  0.41064742  0.24951425
   0.41066319  0.08933673  0.74951348
   0.41064741  0.32132755  0.74951418
   0.17867219  0.08935243  0.74951417
   0.08933665  0.91066333  0.24951353
   0.08935244  0.67867229  0.24951424
   0.32132768  0.91064753  0.24951424
   0.41066315  0.58933681  0.74951348
   0.41064743  0.82132763  0.74951418
   0.17867239  0.58935254  0.74951418
   0.58933684  0.41066316  0.24951355
   0.58935254  0.17867240  0.24951425
   0.82132764  0.41064743  0.24951425
   0.91066334  0.08933666  0.74951347
   0.91064754  0.32132768  0.74951418
   0.67867232  0.08935246  0.74951418
   0.58933676  0.91066327  0.24951354
   0.58935253  0.67867242  0.24951425
   0.82132781  0.91064757  0.24951424
   0.91066328  0.58933677  0.74951348
   0.91064758  0.82132783  0.74951417
   0.67867244  0.58935255  0.74951418
   0.07385425  0.42614564  0.05561066
   0.07385441  0.14770478  0.05561042
   0.35229513  0.42614550  0.05561039
   0.42614562  0.07385426  0.55561065
   0.42614550  0.35229512  0.55561038
   0.14770478  0.07385441  0.55561041
   0.42576437  0.07423554  0.94606421
   0.14847411  0.07423504  0.94606413
   0.42576488  0.35152579  0.94606416
   0.07423553  0.42576439  0.44606421
   0.35152580  0.42576488  0.44606416
   0.07423504  0.14847410  0.44606413
   0.07385428  0.92614569  0.05561067
   0.07385441  0.64770480  0.05561040
   0.35229513  0.92614556  0.05561040
   0.42614569  0.57385431  0.55561065
   0.42614554  0.85229518  0.55561040
   0.14770482  0.57385446  0.55561040
   0.42576442  0.57423558  0.94606420
   0.14847415  0.57423507  0.94606414
   0.42576492  0.85152585  0.94606414
   0.07423555  0.92576442  0.44606420
   0.35152580  0.92576492  0.44606416
   0.07423505  0.64847413  0.44606416
   0.57385429  0.42614568  0.05561066
   0.57385446  0.14770482  0.05561042
   0.85229521  0.42614554  0.05561042
   0.92614576  0.07385431  0.55561066
   0.92614561  0.35229515  0.55561038
   0.64770482  0.07385444  0.55561038
   0.92576449  0.07423558  0.94606420
   0.64847416  0.07423507  0.94606416
   0.92576497  0.35152581  0.94606416
   0.57423556  0.42576441  0.44606420
   0.85152588  0.42576492  0.44606414
   0.57423508  0.14847414  0.44606414
   0.57385433  0.92614574  0.05561066
   0.57385447  0.64770482  0.05561039
   0.85229520  0.92614558  0.05561042
   0.92614577  0.57385436  0.55561065
   0.92614563  0.85229522  0.55561041
   0.64770485  0.57385450  0.55561038
   0.92576449  0.57423561  0.94606421
   0.64847418  0.57423511  0.94606416
   0.92576500  0.85152589  0.94606413
   0.57423558  0.92576446  0.44606421
   0.85152588  0.92576495  0.44606413
   0.57423509  0.64847415  0.44606416
   0.25298780  0.24701209  0.15012960
   0.25298726  0.00596982  0.15013012
   0.49403030  0.24701273  0.15013015
   0.24701209  0.25298780  0.65012956
   0.24701273  0.49403028  0.65013012
   0.00596982  0.25298726  0.65013009
   0.24676626  0.25323365  0.84895199
   0.00647399  0.25323508  0.84894925
   0.24676491  0.49352608  0.84894922
   0.25323365  0.24676626  0.34895195
   0.49352611  0.24676491  0.34894918
   0.25323508  0.00647399  0.34894921
   0.25298770  0.74701227  0.15012965
   0.25298710  0.50596946  0.15013020
   0.49403051  0.74701290  0.15013020
   0.24701211  0.75298791  0.65012954
   0.24701257  0.99402995  0.65013006
   0.00597001  0.75298740  0.65013006
   0.24676629  0.75323373  0.84895201
   0.00647414  0.75323519  0.84894927
   0.24676477  0.99352582  0.84894927
   0.25323357  0.74676640  0.34895191
   0.49352627  0.74676504  0.34894915
   0.25323495  0.50647371  0.34894915
   0.75298789  0.24701208  0.15012957
   0.75298736  0.00596998  0.15013009
   0.99403003  0.24701259  0.15013009
   0.74701234  0.25298772  0.65012962
   0.74701294  0.49403053  0.65013016
   0.50596948  0.25298710  0.65013016
   0.74676647  0.25323360  0.84895196
   0.50647373  0.25323495  0.84894919
   0.74676509  0.49352629  0.84894919
   0.75323371  0.24676626  0.34895197
   0.99352590  0.24676480  0.34894923
   0.75323515  0.00647412  0.34894923
   0.75298784  0.74701220  0.15012960
   0.75298722  0.50596972  0.15013015
   0.99403015  0.74701274  0.15013012
   0.74701226  0.75298790  0.65012956
   0.74701275  0.99403012  0.65013009
   0.50596974  0.75298726  0.65013012
   0.74676642  0.75323373  0.84895199
   0.50647393  0.75323508  0.84894922
   0.74676493  0.99352595  0.84894925
   0.75323367  0.74676635  0.34895195
   0.99352598  0.74676491  0.34894921
   0.75323504  0.50647391  0.34894918
   0.33333686  0.16666388  0.81226712
   0.16666389  0.33333688  0.31226712
   0.16666826  0.33333266  0.18632051
   0.33333264  0.16666825  0.68632049
   0.33333655  0.66666345  0.81226710
   0.16666370  0.83333631  0.31226713
   0.16666802  0.83333198  0.18632049
   0.33333227  0.66666773  0.68632052
   0.83333623  0.16666367  0.81226713
   0.66666345  0.33333657  0.31226710
   0.66666774  0.33333228  0.18632054
   0.83333191  0.16666800  0.68632047
   0.83333607  0.66666314  0.81226712
   0.66666317  0.83333610  0.31226712
   0.66666740  0.83333173  0.18632051
   0.83333170  0.66666736  0.68632049
Direct configuration=     2
   0.00000135  0.99999865  0.00030984
   0.99999865  0.00000135  0.50030984
   0.00000136  0.49999865  0.00030984
   0.99999864  0.50000134  0.50030984
   0.50000135  0.99999864  0.00030984
   0.49999865  0.00000136  0.50030984
   0.50000135  0.49999865  0.00030985
   0.49999865  0.50000135  0.50030985
   0.99999877  0.00000123  0.23883553
   0.00000123  0.99999877  0.73883551
   0.99999887  0.50000137  0.23883552
   0.00000113  0.49999863  0.73883550
   0.49999863  0.00000113  0.23883552
   0.50000137  0.99999887  0.73883550
   0.49999870  0.50000130  0.23883551
   0.50000130  0.49999870  0.73883549
   0.41674832  0.08325165  0.10510121
   0.41674832  0.33349268  0.10510089
   0.16650752  0.08325177  0.10510087
   0.08325165  0.41674835  0.60510123
   0.08325177  0.16650752  0.60510089
   0.33349269  0.41674834  0.60510091
   0.08181188  0.41818813  0.89492323
   0.33637969  0.41818777  0.89492483
   0.08181234  0.16362050  0.89492485
   0.41818810  0.08181187  0.39492318
   0.16362050  0.08181234  0.39492480
   0.41818774  0.33637968  0.39492479
   0.41674828  0.58325169  0.10510125
   0.41674820  0.83349242  0.10510092
   0.16650756  0.58325179  0.10510092
   0.08325165  0.91674829  0.60510120
   0.08325164  0.66650730  0.60510088
   0.33349270  0.91674830  0.60510088
   0.08181188  0.91818807  0.89492326
   0.33637970  0.91818772  0.89492486
   0.08181222  0.66362031  0.89492486
   0.41818806  0.58181190  0.39492315
   0.16362053  0.58181235  0.39492476
   0.41818764  0.83637945  0.39492476
   0.91674832  0.08325165  0.10510118
   0.91674833  0.33349271  0.10510086
   0.66650729  0.08325164  0.10510086
   0.58325172  0.41674831  0.60510127
   0.58325180  0.16650758  0.60510094
   0.83349239  0.41674820  0.60510094
   0.58181193  0.41818809  0.89492320
   0.83637943  0.41818764  0.89492481
   0.58181236  0.16362054  0.89492481
   0.91818810  0.08181187  0.39492321
   0.66362030  0.08181222  0.39492481
   0.91818774  0.33637971  0.39492481
   0.91674832  0.58325164  0.10510121
   0.91674823  0.83349247  0.10510087
   0.66650733  0.58325165  0.10510089
   0.58325165  0.91674830  0.60510123
   0.58325167  0.66650734  0.60510091
   0.83349242  0.91674818  0.60510089
   0.58181187  0.91818807  0.89492323
   0.83637944  0.91818761  0.89492485
   0.58181225  0.66362034  0.89492483
   0.91818810  0.58181186  0.39492318
   0.66362032  0.58181223  0.39492479
   0.91818766  0.83637949  0.39492480
   0.33330538  0.16669464  0.25945489
   0.16669465  0.33330540  0.75945494
   0.33330540  0.66669460  0.25945489
   0.16669468  0.83330532  0.75945494
   0.83330524  0.16669466  0.25945490
   0.66669461  0.33330542  0.75945493
   0.83330531  0.66669461  0.25945489
   0.66669465  0.83330534  0.75945494
   0.16666784  0.33333229  0.02594004
   0.33333227  0.16666784  0.52594004
   0.33333441  0.16666569  0.97404938
   0.16666569  0.33333443  0.47404938
   0.16666781  0.83333219  0.02594006
   0.33333222  0.66666779  0.52594002
   0.33333436  0.66666564  0.97404942
   0.16666566  0.83333434  0.47404936
   0.66666779  0.33333223  0.02594002
   0.83333211  0.16666779  0.52594006
   0.83333426  0.16666564  0.97404936
   0.66666565  0.33333438  0.47404942
   0.66666777  0.83333214  0.02594004
   0.83333211  0.66666773  0.52594004
   0.83333426  0.66666558  0.97404938
   0.66666562  0.83333429  0.47404938
   0.00000086  0.99999914  0.15329503
   0.99999914  0.00000086  0.65329501
   0.00000066  0.99999934  0.85032601
   0.99999934  0.00000066  0.35032594
   0.00000082  0.49999908  0.15329501
   0.99999917  0.50000092  0.65329499
   0.00000069  0.49999940  0.85032603
   0.99999930  0.50000059  0.35032596
   0.50000092  0.99999917  0.15329501
   0.49999908  0.00000083  0.65329499
   0.50000060  0.99999930  0.85032603
   0.49999940  0.00000070  0.35032596
   0.50000089  0.49999910  0.15329500
   0.49999910  0.50000089  0.65329497
   0.50000062  0.49999938  0.85032604
   0.49999938  0.50000062  0.35032598
   0.16666725  0.33333270  0.93756081
   0.33333268  0.16666724  0.43756081
   0.33333489  0.16666502  0.06196558
   0.16666502  0.33333491  0.56196556
   0.16666727  0.83333274  0.93756078
   0.33333270  0.66666730  0.43756086
   0.33333492  0.66666508  0.06196551
   0.16666505  0.83333496  0.56196560
   0.66666731  0.33333272  0.93756086
   0.83333266  0.16666724  0.43756078
   0.83333488  0.16666502  0.06196562
   0.66666509  0.33333493  0.56196550
   0.66666735  0.83333274  0.93756081
   0.83333271  0.66666732  0.43756081
   0.83333493  0.66666511  0.06196558
   0.66666514  0.83333496  0.56196556
   0.08934260  0.41065734  0.24950554
   0.08935856  0.17868378  0.24950624
   0.32131598  0.41064130  0.24950625
   0.41065733  0.08934259  0.74950547
   0.41064129  0.32131597  0.74950618
   0.17868377  0.08935855  0.74950617
   0.08934251  0.91065747  0.24950553
   0.08935856  0.67868387  0.24950624
   0.32131610  0.91064141  0.24950624
   0.41065729  0.58934267  0.74950548
   0.41064131  0.82131605  0.74950618
   0.17868397  0.58935866  0.74950618
   0.58934270  0.41065730  0.24950554
   0.58935867  0.17868398  0.24950625
   0.82131606  0.41064131  0.24950625
   0.91065748  0.08934252  0.74950546
   0.91064142  0.32131610  0.74950618
   0.67868390  0.08935858  0.74950618
   0.58934262  0.91065741  0.24950554
   0.58935866  0.67868400  0.24950625
   0.82131623  0.91064144  0.24950624
   0.91065742  0.58934263  0.74950547
   0.91064146  0.82131625  0.74950617
   0.67868403  0.58935867  0.74950618
   0.07381813  0.42618176  0.05562207
   0.07381830  0.14763251  0.05562182
   0.35236740  0.42618161  0.05562179
   0.42618174  0.07381814  0.55562205
   0.42618162  0.35236739  0.55562178
   0.14763252  0.07381830  0.55562180
   0.42579801  0.07420190  0.94605558
   0.14840687  0.07420138  0.94605553
   0.42579854  0.35159303  0.94605555
   0.07420189  0.42579802  0.44605558
   0.35159304  0.42579854  0.44605555
   0.07420138  0.14840686  0.44605553
   0.07381816  0.92618180  0.05562207
   0.07381829  0.64763253  0.05562179
   0.35236740  0.92618167  0.05562179
   0.42618180  0.57381820  0.55562206
   0.42618165  0.85236744  0.55562180
   0.14763255  0.57381834  0.55562180
   0.42579806  0.57420194  0.94605558
   0.14840691  0.57420142  0.94605553
   0.42579858  0.85159309  0.94605553
   0.07420191  0.92579806  0.44605558
   0.35159304  0.92579858  0.44605555
   0.07420139  0.64840689  0.44605555
   0.57381817  0.42618180  0.05562207
   0.57381834  0.14763255  0.05562181
   0.85236748  0.42618165  0.05562181
   0.92618188  0.07381819  0.55562206
   0.92618172  0.35236741  0.55562178
   0.64763256  0.07381832  0.55562178
   0.92579813  0.07420194  0.94605558
   0.64840692  0.07420141  0.94605555
   0.92579863  0.35159305  0.94605555
   0.57420192  0.42579805  0.44605558
   0.85159312  0.42579858  0.44605553
   0.57420142  0.14840690  0.44605553
   0.57381821  0.92618186  0.05562207
   0.57381836  0.64763255  0.05562179
   0.85236747  0.92618170  0.05562182
   0.92618189  0.57381824  0.55562205
   0.92618174  0.85236748  0.55562180
   0.64763258  0.57381838  0.55562178
   0.92579812  0.57420197  0.94605558
   0.64840694  0.57420146  0.94605555
   0.92579866  0.85159313  0.94605553
   0.57420194  0.92579809  0.44605558
   0.85159312  0.92579861  0.44605553
   0.57420143  0.64840692  0.44605555
   0.25294270  0.24705719  0.15012103
   0.25294215  0.00587954  0.15012160
   0.49412058  0.24705784  0.15012163
   0.24705720  0.25294270  0.65012099
   0.24705784  0.49412056  0.65012160
   0.00587955  0.25294216  0.65012157
   0.24680711  0.25319280  0.84895222
   0.00639247  0.25319427  0.84894937
   0.24680572  0.49360761  0.84894934
   0.25319280  0.24680711  0.34895218
   0.49360763  0.24680572  0.34894930
   0.25319427  0.00639246  0.34894932
   0.25294260  0.74705737  0.15012108
   0.25294199  0.50587918  0.15012168
   0.49412079  0.74705800  0.15012168
   0.24705721  0.75294281  0.65012097
   0.24705767  0.99412023  0.65012154
   0.00587973  0.75294230  0.65012154
   0.24680713  0.75319288  0.84895224
   0.00639262  0.75319438  0.84894939
   0.24680558  0.99360734  0.84894939
   0.25319272  0.74680725  0.34895214
   0.49360779  0.74680585  0.34894927
   0.25319414  0.50639218  0.34894927
   0.75294279  0.24705719  0.15012100
   0.75294226  0.00587971  0.15012157
   0.99412031  0.24705769  0.15012157
   0.74705744  0.25294262  0.65012104
   0.74705805  0.49412081  0.65012165
   0.50587921  0.25294199  0.65012165
   0.74680732  0.25319275  0.84895218
   0.50639221  0.25319414  0.84894931
   0.74680590  0.49360781  0.84894931
   0.75319286  0.24680711  0.34895219
   0.99360742  0.24680561  0.34894934
   0.75319434  0.00639259  0.34894934
   0.75294274  0.74705730  0.15012103
   0.75294212  0.50587944  0.15012163
   0.99412043  0.74705784  0.15012160
   0.74705737  0.75294280  0.65012099
   0.74705786  0.99412040  0.65012157
   0.50587946  0.75294216  0.65012160
   0.74680726  0.75319289  0.84895222
   0.50639241  0.75319427  0.84894934
   0.74680574  0.99360747  0.84894937
   0.75319282  0.74680720  0.34895218
   0.99360751  0.74680572  0.34894932
   0.75319423  0.50639239  0.34894930
   0.33333691  0.16666383  0.81227922
   0.16666384  0.33333693  0.31227922
   0.16666829  0.33333262  0.18630249
   0.33333260  0.16666828  0.68630247
   0.33333661  0.66666339  0.81227920
   0.16666364  0.83333636  0.31227924
   0.16666805  0.83333195  0.18630248
   0.33333224  0.66666777  0.68630250
   0.83333628  0.16666362  0.81227924
   0.66666340  0.33333662  0.31227920
   0.66666777  0.33333225  0.18630252
   0.83333187  0.16666803  0.68630245
   0.83333612  0.66666308  0.81227922
   0.66666312  0.83333615  0.31227922
   0.66666743  0.83333170  0.18630249
   0.83333167  0.66666739  0.68630247
Direct configuration=     3
   0.00000135  0.99999865  0.00031018
   0.99999865  0.00000135  0.50031018
   0.00000136  0.49999865  0.00031018
   0.99999864  0.50000134  0.50031018
   0.50000135  0.99999864  0.00031018
   0.49999865  0.00000136  0.50031018
   0.50000135  0.49999865  0.00031019
   0.49999865  0.50000135  0.50031019
   0.99999876  0.00000124  0.23883749
   0.00000124  0.99999876  0.73883747
   0.99999886  0.50000137  0.23883748
   0.00000113  0.49999862  0.73883746
   0.49999863  0.00000113  0.23883748
   0.50000137  0.99999887  0.73883746
   0.49999869  0.50000130  0.23883748
   0.50000130  0.49999869  0.73883745
   0.41674844  0.08325153  0.10510210
   0.41674843  0.33349291  0.10510178
   0.16650729  0.08325166  0.10510177
   0.08325154  0.41674846  0.60510212
   0.08325166  0.16650729  0.60510179
   0.33349292  0.41674846  0.60510180
   0.08181371  0.41818629  0.89492273
   0.33637601  0.41818593  0.89492433
   0.08181417  0.16362418  0.89492435
   0.41818627  0.08181371  0.39492269
   0.16362418  0.08181417  0.39492430
   0.41818590  0.33637600  0.39492429
   0.41674839  0.58325158  0.10510214
   0.41674831  0.83349265  0.10510181
   0.16650733  0.58325168  0.10510181
   0.08325154  0.91674841  0.60510209
   0.08325153  0.66650707  0.60510178
   0.33349293  0.91674842  0.60510178
   0.08181371  0.91818624  0.89492276
   0.33637601  0.91818588  0.89492436
   0.08181406  0.66362399  0.89492436
   0.41818623  0.58181374  0.39492265
   0.16362421  0.58181419  0.39492426
   0.41818580  0.83637577  0.39492426
   0.91674843  0.08325154  0.10510207
   0.91674844  0.33349295  0.10510175
   0.66650706  0.08325153  0.10510175
   0.58325161  0.41674842  0.60510216
   0.58325168  0.16650734  0.60510183
   0.83349263  0.41674831  0.60510183
   0.58181377  0.41818626  0.89492270
   0.83637574  0.41818580  0.89492431
   0.58181419  0.16362423  0.89492431
   0.91818626  0.08181371  0.39492272
   0.66362398  0.08181406  0.39492431
   0.91818591  0.33637603  0.39492431
   0.91674843  0.58325153  0.10510210
   0.91674834  0.83349270  0.10510177
   0.66650709  0.58325154  0.10510178
   0.58325154  0.91674841  0.60510212
   0.58325156  0.66650711  0.60510180
   0.83349265  0.91674829  0.60510179
   0.58181371  0.91818624  0.89492273
   0.83637576  0.91818577  0.89492435
   0.58181408  0.66362402  0.89492433
   0.91818626  0.58181370  0.39492269
   0.66362401  0.58181406  0.39492429
   0.91818583  0.83637581  0.39492430
   0.33330543  0.16669459  0.25945228
   0.16669460  0.33330545  0.75945233
   0.33330545  0.66669455  0.25945228
   0.16669464  0.83330537  0.75945233
   0.83330529  0.16669461  0.25945228
   0.66669456  0.33330547  0.75945232
   0.83330536  0.66669457  0.25945228
   0.66669460  0.83330539  0.75945233
   0.16666784  0.33333229  0.02593920
   0.33333227  0.16666784  0.52593920
   0.33333441  0.16666569  0.97405017
   0.16666570  0.33333443  0.47405017
   0.16666781  0.83333219  0.02593922
   0.33333222  0.66666779  0.52593918
   0.33333436  0.66666564  0.97405021
   0.16666567  0.83333434  0.47405015
   0.66666779  0.33333223  0.02593918
   0.83333211  0.16666779  0.52593922
   0.83333426  0.16666564  0.97405015
   0.66666565  0.33333438  0.47405021
   0.66666776  0.83333214  0.02593920
   0.83333211  0.66666773  0.52593920
   0.83333426  0.66666559  0.97405017
   0.66666562  0.83333429  0.47405017
   0.00000086  0.99999914  0.15329759
   0.99999914  0.00000086  0.65329757
   0.00000065  0.99999935  0.85031629
   0.99999935  0.00000065  0.35031622
   0.00000082  0.49999908  0.15329757
   0.99999917  0.50000091  0.65329755
   0.00000069  0.49999940  0.85031631
   0.99999931  0.50000059  0.35031624
   0.50000092  0.99999918  0.15329757
   0.49999908  0.00000082  0.65329755
   0.50000059  0.99999931  0.85031631
   0.49999941  0.00000069  0.35031624
   0.50000089  0.49999910  0.15329755
   0.49999910  0.50000089  0.65329753
   0.50000062  0.49999938  0.85031632
   0.49999938  0.50000062  0.35031626
   0.16666725  0.33333270  0.93756599
   0.33333268  0.16666724  0.43756599
   0.33333489  0.16666502  0.06195991
   0.16666503  0.33333491  0.56195990
   0.16666727  0.83333274  0.93756596
   0.33333270  0.66666730  0.43756604
   0.33333491  0.66666509  0.06195985
   0.16666505  0.83333495  0.56195994
   0.66666731  0.33333272  0.93756604
   0.83333266  0.16666724  0.43756596
   0.83333488  0.16666503  0.06195996
   0.66666509  0.33333493  0.56195983
   0.66666735  0.83333274  0.93756599
   0.83333271  0.66666732  0.43756599
   0.83333493  0.66666511  0.06195991
   0.66666514  0.83333496  0.56195990
   0.08934174  0.41065819  0.24950670
   0.08935767  0.17868209  0.24950741
   0.32131767  0.41064219  0.24950741
   0.41065819  0.08934173  0.74950664
   0.41064218  0.32131766  0.74950735
   0.17868208  0.08935766  0.74950734
   0.08934166  0.91065833  0.24950670
   0.08935767  0.67868218  0.24950741
   0.32131779  0.91064230  0.24950741
   0.41065814  0.58934182  0.74950664
   0.41064220  0.82131774  0.74950735
   0.17868228  0.58935777  0.74950735
   0.58934184  0.41065815  0.24950671
   0.58935777  0.17868229  0.24950741
   0.82131775  0.41064220  0.24950741
   0.91065834  0.08934167  0.74950663
   0.91064231  0.32131779  0.74950734
   0.67868221  0.08935769  0.74950734
   0.58934177  0.91065826  0.24950670
   0.58935776  0.67868231  0.24950741
   0.82131792  0.91064234  0.24950741
   0.91065828  0.58934178  0.74950664
   0.91064236  0.82131794  0.74950734
   0.67868234  0.58935778  0.74950735
   0.07382340  0.42617649  0.05562040
   0.07382357  0.14764305  0.05562015
   0.35235685  0.42617634  0.05562013
   0.42617647  0.07382341  0.55562039
   0.42617635  0.35235685  0.55562011
   0.14764306  0.07382357  0.55562014
   0.42579310  0.07420681  0.94605684
   0.14841668  0.07420629  0.94605678
   0.42579363  0.35158322  0.94605681
   0.07420680  0.42579312  0.44605684
   0.35158323  0.42579363  0.44605681
   0.07420629  0.14841667  0.44605678
   0.07382343  0.92617653  0.05562041
   0.07382356  0.64764307  0.05562013
   0.35235685  0.92617641  0.05562013
   0.42617653  0.57382347  0.55562039
   0.42617638  0.85235690  0.55562014
   0.14764310  0.57382361  0.55562014
   0.42579315  0.57420685  0.94605684
   0.14841672  0.57420633  0.94605678
   0.42579367  0.85158328  0.94605678
   0.07420682  0.92579315  0.44605684
   0.35158323  0.92579367  0.44605680
   0.07420630  0.64841670  0.44605680
   0.57382344  0.42617653  0.05562040
   0.57382361  0.14764309  0.05562015
   0.85235693  0.42617638  0.05562015
   0.92617661  0.07382346  0.55562040
   0.92617645  0.35235687  0.55562012
   0.64764310  0.07382359  0.55562012
   0.92579322  0.07420685  0.94605684
   0.64841673  0.07420632  0.94605680
   0.92579372  0.35158324  0.94605680
   0.57420683  0.42579314  0.44605684
   0.85158331  0.42579367  0.44605678
   0.57420633  0.14841671  0.44605678
   0.57382348  0.92617659  0.05562040
   0.57382363  0.64764310  0.05562013
   0.85235693  0.92617643  0.05562015
   0.92617662  0.57382351  0.55562039
   0.92617647  0.85235694  0.55562014
   0.64764312  0.57382365  0.55562011
   0.92579322  0.57420688  0.94605684
   0.64841675  0.57420637  0.94605681
   0.92579375  0.85158332  0.94605678
   0.57420685  0.92579319  0.44605684
   0.85158331  0.92579370  0.44605678
   0.57420634  0.64841673  0.44605681
   0.25294928  0.24705061  0.15012228
   0.25294874  0.00589272  0.15012285
   0.49410741  0.24705126  0.15012288
   0.24705062  0.25294928  0.65012224
   0.24705126  0.49410738  0.65012284
   0.00589272  0.25294874  0.65012281
   0.24680115  0.25319876  0.84895219
   0.00640436  0.25320022  0.84894935
   0.24679977  0.49359571  0.84894932
   0.25319876  0.24680115  0.34895214
   0.49359574  0.24679977  0.34894928
   0.25320022  0.00640436  0.34894931
   0.25294918  0.74705079  0.15012233
   0.25294857  0.50589236  0.15012292
   0.49410762  0.74705142  0.15012292
   0.24705063  0.75294939  0.65012222
   0.24705109  0.99410706  0.65012278
   0.00589290  0.75294888  0.65012278
   0.24680117  0.75319884  0.84895220
   0.00640451  0.75320034  0.84894937
   0.24679963  0.99359545  0.84894937
   0.25319868  0.74680129  0.34895210
   0.49359590  0.74679990  0.34894925
   0.25320010  0.50640408  0.34894925
   0.75294937  0.24705060  0.15012225
   0.75294884  0.00589288  0.15012282
   0.99410714  0.24705111  0.15012282
   0.74705086  0.25294920  0.65012229
   0.74705147  0.49410764  0.65012289
   0.50589238  0.25294857  0.65012289
   0.74680136  0.25319871  0.84895215
   0.50640410  0.25320010  0.84894929
   0.74679994  0.49359592  0.84894929
   0.75319882  0.24680115  0.34895216
   0.99359553  0.24679966  0.34894932
   0.75320030  0.00640449  0.34894932
   0.75294932  0.74705072  0.15012228
   0.75294870  0.50589261  0.15012288
   0.99410726  0.74705126  0.15012285
   0.74705079  0.75294938  0.65012224
   0.74705128  0.99410722  0.65012281
   0.50589263  0.75294874  0.65012284
   0.74680130  0.75319885  0.84895219
   0.50640430  0.75320023  0.84894932
   0.74679979  0.99359558  0.84894935
   0.75319878  0.74680124  0.34895214
   0.99359561  0.74679977  0.34894931
   0.75320019  0.50640428  0.34894928
   0.33333690  0.16666384  0.81227746
   0.16666384  0.33333693  0.31227746
   0.16666828  0.33333263  0.18630512
   0.33333261  0.16666828  0.68630510
   0.33333660  0.66666340  0.81227743
   0.16666365  0.83333635  0.31227747
   0.16666805  0.83333196  0.18630511
   0.33333224  0.66666776  0.68630513
   0.83333628  0.16666363  0.81227747
   0.66666341  0.33333662  0.31227743
   0.66666777  0.33333226  0.18630515
   0.83333188  0.16666802  0.68630508
   0.83333611  0.66666309  0.81227746
   0.66666313  0.83333614  0.31227746
   0.66666743  0.83333170  0.18630512
   0.83333167  0.66666739  0.68630510
Direct configuration=     4
   0.00000137  0.99999863  0.00031193
   0.99999863  0.00000137  0.50031193
   0.00000137  0.49999864  0.00031193
   0.99999862  0.50000136  0.50031193
   0.50000136  0.99999863  0.00031193
   0.49999864  0.00000137  0.50031193
   0.50000136  0.49999863  0.00031193
   0.49999863  0.50000136  0.50031193
   0.99999879  0.00000121  0.23881078
   0.00000121  0.99999879  0.73881076
   0.99999888  0.50000135  0.23881077
   0.00000111  0.49999865  0.73881075