Ca2Al24O38                              
           1
    11.457499    0.000000    0.000000
    -5.728749    9.922485    0.000000
     0.000000    0.000000   22.404704
   Al   Ca   Mg   O    Ti
  64   8  16 152  16
Direct configuration=     1
   0.00000139  0.99999861  0.00031425
   0.99999861  0.00000139  0.50031425
   0.00000139  0.49999861  0.00031426
   0.99999860  0.50000138  0.50031426
   0.50000138  0.99999860  0.00031426
   0.49999862  0.00000140  0.50031426
   0.50000139  0.49999861  0.00031426
   0.49999861  0.50000138  0.50031426
   0.99999881  0.00000119  0.23877101
   0.00000119  0.99999881  0.73877099
   0.99999891  0.50000132  0.23877100
   0.00000108  0.49999867  0.73877098
   0.49999868  0.00000108  0.23877100
   0.50000132  0.99999892  0.73877098
   0.49999874  0.50000125  0.23877100
   0.50000125  0.49999874  0.73877097
   0.41675638  0.08324359  0.10510160
   0.41675638  0.33350866  0.10510125
   0.16649155  0.08324370  0.10510124
   0.08324359  0.41675641  0.60510163
   0.08324370  0.16649155  0.60510126
   0.33350867  0.41675641  0.60510127
   0.08181125  0.41818875  0.89493676
   0.33638115  0.41818837  0.89493844
   0.08181173  0.16361904  0.89493845
   0.41818872  0.08181125  0.39493672
   0.16361904  0.08181173  0.39493840
   0.41818834  0.33638114  0.39493839
   0.41675634  0.58324363  0.10510164
   0.41675627  0.83350839  0.10510128
   0.16649159  0.58324373  0.10510128
   0.08324359  0.91675635  0.60510160
   0.08324358  0.66649133  0.60510125
   0.33350868  0.91675637  0.60510125
   0.08181125  0.91818869  0.89493679
   0.33638116  0.91818832  0.89493846
   0.08181162  0.66361885  0.89493846
   0.41818869  0.58181128  0.39493668
   0.16361907  0.58181175  0.39493837
   0.41818824  0.83638091  0.39493837
   0.91675638  0.08324359  0.10510157
   0.91675639  0.33350869  0.10510122
   0.66649132  0.08324358  0.10510122
   0.58324366  0.41675637  0.60510167
   0.58324373  0.16649160  0.60510130
   0.83350837  0.41675627  0.60510130
   0.58181131  0.41818871  0.89493673
   0.83638088  0.41818824  0.89493841
   0.58181176  0.16361908  0.89493841
   0.91818872  0.08181125  0.39493674
   0.66361884  0.08181162  0.39493842
   0.91818835  0.33638117  0.39493842
   0.91675638  0.58324358  0.10510160
   0.91675629  0.83350845  0.10510124
   0.66649135  0.58324358  0.10510125
   0.58324359  0.91675636  0.60510163
   0.58324361  0.66649136  0.60510127
   0.83350839  0.91675624  0.60510126
   0.58181125  0.91818870  0.89493676
   0.83638090  0.91818821  0.89493845
   0.58181165  0.66361888  0.89493844
   0.91818872  0.58181124  0.39493672
   0.66361887  0.58181163  0.39493839
   0.91818826  0.83638095  0.39493840
   0.33330439  0.16669563  0.25950434
   0.16669564  0.33330441  0.75950439
   0.33330441  0.66669559  0.25950434
   0.16669568  0.83330433  0.75950439
   0.83330425  0.16669565  0.25950434
   0.66669560  0.33330443  0.75950438
   0.83330432  0.66669561  0.25950434
   0.66669564  0.83330435  0.75950439
   0.16666786  0.33333227  0.02595235
   0.33333225  0.16666785  0.52595235
   0.33333445  0.16666565  0.97404460
   0.16666565  0.33333447  0.47404460
   0.16666783  0.83333218  0.02595237
   0.33333220  0.66666780  0.52595233
   0.33333440  0.66666560  0.97404463
   0.16666562  0.83333438  0.47404458
   0.66666781  0.33333221  0.02595233
   0.83333210  0.16666781  0.52595237
   0.83333430  0.16666560  0.97404458
   0.66666561  0.33333442  0.47404463
   0.66666778  0.83333213  0.02595235
   0.83333210  0.66666775  0.52595235
   0.83333430  0.66666554  0.97404460
   0.66666558  0.83333433  0.47404460
   0.00000091  0.99999909  0.15329309
   0.99999909  0.00000091  0.65329307
   0.00000071  0.99999929  0.85037847
   0.99999929  0.00000071  0.35037840
   0.00000087  0.49999903  0.15329307
   0.99999912  0.50000096  0.65329305
   0.00000075  0.49999935  0.85037849
   0.99999925  0.50000064  0.35037842
   0.50000097  0.99999913  0.15329307
   0.49999903  0.00000087  0.65329305
   0.50000065  0.99999925  0.85037849
   0.49999935  0.00000075  0.35037842
   0.50000094  0.49999905  0.15329305
   0.49999905  0.50000094  0.65329303
   0.50000067  0.49999932  0.85037850
   0.49999933  0.50000067  0.35037844
   0.16666727  0.33333268  0.93753701
   0.33333266  0.16666726  0.43753701
   0.33333497  0.16666494  0.06197910
   0.16666495  0.33333499  0.56197908
   0.16666729  0.83333272  0.93753698
   0.33333268  0.66666732  0.43753706
   0.33333499  0.66666501  0.06197903
   0.16666497  0.83333503  0.56197912
   0.66666733  0.33333270  0.93753706
   0.83333264  0.16666726  0.43753698
   0.83333496  0.16666495  0.06197914
   0.66666502  0.33333501  0.56197902
   0.66666737  0.83333272  0.93753701
   0.83333269  0.66666734  0.43753701
   0.83333501  0.66666503  0.06197910
   0.66666507  0.83333504  0.56197908
   0.08931721  0.41068272  0.24949627
   0.08933393  0.17863269  0.24949700
   0.32136707  0.41066593  0.24949701
   0.41068271  0.08931720  0.74949620
   0.41066591  0.32136706  0.74949694
   0.17863268  0.08933392  0.74949694
   0.08931713  0.91068285  0.24949626
   0.08933394  0.67863278  0.24949701
   0.32136719  0.91066604  0.24949701
   0.41068267  0.58931729  0.74949621
   0.41066594  0.82136714  0.74949694
   0.17863288  0.58933403  0.74949694
   0.58931731  0.41068268  0.24949627
   0.58933404  0.17863289  0.24949701
   0.82136715  0.41066594  0.24949701
   0.91068287  0.08931714  0.74949620
   0.91066605  0.32136719  0.74949694
   0.67863281  0.08933395  0.74949694
   0.58931724  0.91068279  0.24949627
   0.58933403  0.67863291  0.24949701
   0.82136732  0.91066607  0.24949700
   0.91068280  0.58931725  0.74949620
   0.91066609  0.82136734  0.74949694
   0.67863294  0.58933404  0.74949694
   0.07382773  0.42617216  0.05561372
   0.07382789  0.14765159  0.05561344
   0.35234832  0.42617203  0.05561341
   0.42617215  0.07382773  0.55561371
   0.42617203  0.35234831  0.55561340
   0.14765160  0.07382789  0.55561343
   0.42577709  0.07422282  0.94607669
   0.14844881  0.07422224  0.94607667
   0.42577768  0.35155109  0.94607670
   0.07422281  0.42577711  0.44607669
   0.35155110  0.42577768  0.44607670
   0.07422224  0.14844880  0.44607667
   0.07382776  0.92617221  0.05561373
   0.07382788  0.64765161  0.05561342
   0.35234832  0.92617209  0.05561342
   0.42617221  0.57382779  0.55561371
   0.42617206  0.85234836  0.55561343
   0.14765163  0.57382793  0.55561343
   0.42577714  0.57422286  0.94607669
   0.14844885  0.57422227  0.94607668
   0.42577772  0.85155115  0.94607668
   0.07422283  0.92577714  0.44607669
   0.35155110  0.92577773  0.44607669
   0.07422224  0.64844883  0.44607669
   0.57382777  0.42617220  0.05561373
   0.57382793  0.14765163  0.05561344
   0.85234839  0.42617206  0.05561344
   0.92617228  0.07382778  0.55561372
   0.92617213  0.35234833  0.55561341
   0.64765164  0.07382791  0.55561341
   0.92577721  0.07422285  0.94607669
   0.64844886  0.07422227  0.94607669
   0.92577777  0.35155111  0.94607669
   0.57422283  0.42577714  0.44607669
   0.85155118  0.42577772  0.44607668
   0.57422227  0.14844884  0.44607668
   0.57382781  0.92617226  0.05561372
   0.57382795  0.64765164  0.05561341
   0.85234839  0.92617211  0.05561344
   0.92617229  0.57382783  0.55561371
   0.92617215  0.85234840  0.55561343
   0.64765166  0.57382797  0.55561340
   0.92577721  0.57422289  0.94607669
   0.64844888  0.57422231  0.94607670
   0.92577780  0.85155119  0.94607667
   0.57422286  0.92577718  0.44607669
   0.85155118  0.92577776  0.44607667
   0.57422229  0.64844885  0.44607670
   0.25291952  0.24708037  0.15007767
   0.25291900  0.00583302  0.15007837
   0.49416711  0.24708099  0.15007840
   0.24708037  0.25291952  0.65007763
   0.24708099  0.49416708  0.65007837
   0.00583302  0.25291900  0.65007834
   0.24682508  0.25317483  0.84897202
   0.00635704  0.25317644  0.84896891
   0.24682355  0.49364303  0.84896889
   0.25317483  0.24682508  0.34897198
   0.49364306  0.24682355  0.34896884
   0.25317644  0.00635704  0.34896887
   0.25291942  0.74708055  0.15007772
   0.25291884  0.50583266  0.15007845
   0.49416732  0.74708116  0.15007845
   0.24708038  0.75291964  0.65007761
   0.24708083  0.99416676  0.65007831
   0.00583320  0.75291914  0.65007831
   0.24682511  0.75317491  0.84897204
   0.00635719  0.75317656  0.84896893
   0.24682341  0.99364277  0.84896893
   0.25317475  0.74682522  0.34897194
   0.49364321  0.74682368  0.34896881
   0.25317632  0.50635676  0.34896881
   0.75291962  0.24708036  0.15007764
   0.75291910  0.00583318  0.15007834
   0.99416684  0.24708085  0.15007834
   0.74708062  0.25291945  0.65007769
   0.74708120  0.49416733  0.65007841
   0.50583268  0.25291884  0.65007841
   0.74682529  0.25317478  0.84897198
   0.50635678  0.25317632  0.84896886
   0.74682372  0.49364323  0.84896886
   0.75317489  0.24682508  0.34897199
   0.99364285  0.24682344  0.34896889
   0.75317652  0.00635717  0.34896889
   0.75291956  0.74708047  0.15007767
   0.75291896  0.50583291  0.15007840
   0.99416695  0.74708100  0.15007837
   0.74708054  0.75291963  0.65007763
   0.74708101  0.99416692  0.65007834
   0.50583293  0.75291900  0.65007837
   0.74682524  0.75317491  0.84897202
   0.50635698  0.75317645  0.84896889
   0.74682357  0.99364290  0.84896891
   0.75317485  0.74682517  0.34897198
   0.99364293  0.74682355  0.34896887
   0.75317641  0.50635696  0.34896884
   0.33333702  0.16666373  0.81225231
   0.16666373  0.33333704  0.31225231
   0.16666840  0.33333251  0.18631078
   0.33333249  0.16666839  0.68631075
   0.33333671  0.66666329  0.81225229
   0.16666354  0.83333647  0.31225233
   0.16666816  0.83333184  0.18631076
   0.33333213  0.66666788  0.68631078
   0.83333639  0.16666351  0.81225233
   0.66666330  0.33333673  0.31225229
   0.66666788  0.33333214  0.18631080
   0.83333176  0.16666814  0.68631074
   0.83333622  0.66666298  0.81225231
   0.66666302  0.83333626  0.31225231
   0.66666754  0.83333159  0.18631078
   0.83333156  0.66666751  0.68631075
Direct configuration=     2
   0.00000141  0.99999859  0.00031464
   0.99999859  0.00000141  0.50031464
   0.00000141  0.49999860  0.00031465
   0.99999859  0.50000140  0.50031465
   0.50000140  0.99999859  0.00031465
   0.49999860  0.00000141  0.50031465
   0.50000140  0.49999859  0.00031465
   0.49999859  0.50000140  0.50031465
   0.99999882  0.00000118  0.23875397
   0.00000118  0.99999882  0.73875395
   0.99999892  0.50000131  0.23875396
   0.00000108  0.49999868  0.73875394
   0.49999868  0.00000108  0.23875396
   0.50000132  0.99999892  0.73875394
   0.49999875  0.50000124  0.23875395
   0.50000125  0.49999875  0.73875393
   0.41674900  0.08325097  0.10509274
   0.41674900  0.33349382  0.10509238
   0.16650638  0.08325109  0.10509237
   0.08325098  0.41674902  0.60509277
   0.08325109  0.16650639  0.60509239
   0.33349383  0.41674903  0.60509240
   0.08180780  0.41819221  0.89494071
   0.33638814  0.41819183  0.89494241
   0.08180827  0.16361205  0.89494242
   0.41819218  0.08180779  0.39494066
   0.16361205  0.08180827  0.39494238
   0.41819180  0.33638813  0.39494236
   0.41674895  0.58325102  0.10509278
   0.41674888  0.83349356  0.10509241
   0.16650642  0.58325111  0.10509241
   0.08325098  0.91674897  0.60509273
   0.08325096  0.66650617  0.60509238
   0.33349384  0.91674898  0.60509238
   0.08180779  0.91819215  0.89494073
   0.33638814  0.91819178  0.89494243
   0.08180816  0.66361186  0.89494243
   0.41819214  0.58180782  0.39494063
   0.16361208  0.58180829  0.39494234
   0.41819170  0.83638790  0.39494234
   0.91674899  0.08325098  0.10509271
   0.91674901  0.33349385  0.10509235
   0.66650616  0.08325096  0.10509235
   0.58325105  0.41674898  0.60509280
   0.58325111  0.16650644  0.60509243
   0.83349353  0.41674888  0.60509243
   0.58180785  0.41819217  0.89494067
   0.83638787  0.41819170  0.89494238
   0.58180830  0.16361210  0.89494238
   0.91819218  0.08180779  0.39494069
   0.66361185  0.08180816  0.39494239
   0.91819180  0.33638816  0.39494239
   0.91674899  0.58325097  0.10509274
   0.91674891  0.83349361  0.10509237
   0.66650619  0.58325097  0.10509238
   0.58325098  0.91674897  0.60509277
   0.58325099  0.66650620  0.60509240
   0.83349356  0.91674886  0.60509239
   0.58180779  0.91819216  0.89494071
   0.83638789  0.91819167  0.89494242
   0.58180819  0.66361189  0.89494241
   0.91819218  0.58180778  0.39494066
   0.66361188  0.58180817  0.39494236
   0.91819172  0.83638794  0.39494238
   0.33330401  0.16669601  0.25952518
   0.16669602  0.33330403  0.75952522
   0.33330403  0.66669597  0.25952518
   0.16669606  0.83330395  0.75952523
   0.83330387  0.16669603  0.25952518
   0.66669598  0.33330405  0.75952522
   0.83330394  0.66669599  0.25952518
   0.66669602  0.83330397  0.75952522
   0.16666787  0.33333226  0.02594669
   0.33333224  0.16666787  0.52594669
   0.33333447  0.16666563  0.97405595
   0.16666564  0.33333449  0.47405595
   0.16666784  0.83333216  0.02594671
   0.33333219  0.66666782  0.52594667
   0.33333442  0.66666558  0.97405598
   0.16666561  0.83333440  0.47405593
   0.66666782  0.33333220  0.02594667
   0.83333208  0.16666782  0.52594671
   0.83333432  0.16666558  0.97405593
   0.66666559  0.33333443  0.47405598
   0.66666780  0.83333211  0.02594669
   0.83333208  0.66666776  0.52594669
   0.83333432  0.66666553  0.97405595
   0.66666556  0.83333435  0.47405595
   0.00000093  0.99999907  0.15328033
   0.99999907  0.00000093  0.65328030
   0.00000072  0.99999928  0.85038304
   0.99999928  0.00000072  0.35038297
   0.00000089  0.49999901  0.15328030
   0.99999911  0.50000098  0.65328028
   0.00000076  0.49999934  0.85038306
   0.99999924  0.50000066  0.35038300
   0.50000098  0.99999911  0.15328030
   0.49999902  0.00000089  0.65328028
   0.50000066  0.99999924  0.85038306
   0.49999934  0.00000076  0.35038300
   0.50000096  0.49999903  0.15328029
   0.49999904  0.50000096  0.65328027
   0.50000068  0.49999931  0.85038308
   0.49999931  0.50000068  0.35038301
   0.16666728  0.33333267  0.93755505
   0.33333265  0.16666727  0.43755505
   0.33333499  0.16666492  0.06196579
   0.16666492  0.33333502  0.56196577
   0.16666730  0.83333271  0.93755501
   0.33333267  0.66666733  0.43755510
   0.33333502  0.66666498  0.06196572
   0.16666494  0.83333506  0.56196581
   0.66666734  0.33333269  0.93755510
   0.83333263  0.16666727  0.43755501
   0.83333498  0.16666492  0.06196583
   0.66666499  0.33333504  0.56196571
   0.66666738  0.83333271  0.93755505
   0.83333268  0.66666735  0.43755505
   0.83333503  0.66666500  0.06196579
   0.66666504  0.83333507  0.56196577
   0.08932465  0.41067528  0.24949526
   0.08934164  0.17864748  0.24949601
   0.32135228  0.41065822  0.24949602
   0.41067527  0.08932464  0.74949520
   0.41065821  0.32135227  0.74949595
   0.17864747  0.08934163  0.74949594
   0.08932457  0.91067541  0.24949526
   0.08934165  0.67864757  0.24949601
   0.32135240  0.91065833  0.24949601
   0.41067523  0.58932473  0.74949520
   0.41065823  0.82135235  0.74949595
   0.17864767  0.58934174  0.74949595
   0.58932475  0.41067524  0.24949527
   0.58934175  0.17864768  0.24949602
   0.82135236  0.41065823  0.24949602
   0.91067543  0.08932458  0.74949519
   0.91065834  0.32135240  0.74949595
   0.67864760  0.08934166  0.74949595
   0.58932468  0.91067535  0.24949526
   0.58934174  0.67864770  0.24949602
   0.82135253  0.91065836  0.24949601
   0.91067536  0.58932469  0.74949520
   0.91065838  0.82135255  0.74949594
   0.67864773  0.58934175  0.74949595
   0.07382440  0.42617549  0.05561210
   0.07382456  0.14764489  0.05561181
   0.35235501  0.42617535  0.05561178
   0.42617547  0.07382441  0.55561209
   0.42617535  0.35235501  0.55561177
   0.14764490  0.07382456  0.55561180
   0.42578215  0.07421776  0.94608454
   0.14843874  0.07421717  0.94608452
   0.42578276  0.35156116  0.94608455
   0.07421775  0.42578216  0.44608454
   0.35156116  0.42578276  0.44608455
   0.07421717  0.14843874  0.44608452
   0.07382443  0.92617553  0.05561210
   0.07382456  0.64764491  0.05561178
   0.35235502  0.92617541  0.05561178
   0.42617553  0.57382447  0.55561209
   0.42617539  0.85235506  0.55561179
   0.14764493  0.57382460  0.55561179
   0.42578220  0.57421780  0.94608453
   0.14843878  0.57421720  0.94608453
   0.42578280  0.85156122  0.94608453
   0.07421777  0.92578220  0.44608453
   0.35156116  0.92578280  0.44608455
   0.07421717  0.64843877  0.44608455
   0.57382444  0.42617553  0.05561210
   0.57382461  0.14764493  0.05561180
   0.85235509  0.42617539  0.05561180
   0.92617561  0.07382446  0.55561209
   0.92617546  0.35235503  0.55561177
   0.64764494  0.07382458  0.55561177
   0.92578227  0.07421780  0.94608453
   0.64843879  0.07421720  0.94608455
   0.92578285  0.35156118  0.94608455
   0.57421778  0.42578219  0.44608453
   0.85156125  0.42578280  0.44608453
   0.57421720  0.14843877  0.44608453
   0.57382448  0.92617558  0.05561210
   0.57382462  0.64764494  0.05561178
   0.85235509  0.92617543  0.05561181
   0.92617561  0.57382451  0.55561209
   0.92617548  0.85235510  0.55561180
   0.64764496  0.57382464  0.55561177
   0.92578226  0.57421783  0.94608454
   0.64843881  0.57421724  0.94608455
   0.92578287  0.85156126  0.94608452
   0.57421781  0.92578223  0.44608454
   0.85156124  0.92578283  0.44608452
   0.57421722  0.64843879  0.44608455
   0.25292339  0.24707650  0.15007493
   0.25292286  0.00584066  0.15007567
   0.49415946  0.24707713  0.15007570
   0.24707650  0.25292339  0.65007490
   0.24707713  0.49415943  0.65007567
   0.00584067  0.25292286  0.65007564
   0.24681966  0.25318025  0.84897261
   0.00636802  0.25318190  0.84896943
   0.24681809  0.49363205  0.84896940
   0.25318024  0.24681966  0.34897257
   0.49363208  0.24681809  0.34896936
   0.25318190  0.00636802  0.34896939
   0.25292329  0.74707668  0.15007498
   0.25292270  0.50584031  0.15007575
   0.49415967  0.74707729  0.15007575
   0.24707652  0.75292350  0.65007487
   0.24707696  0.99415911  0.65007561
   0.00584085  0.75292301  0.65007561
   0.24681969  0.75318033  0.84897263
   0.00636817  0.75318201  0.84896945
   0.24681795  0.99363179  0.84896945
   0.25318017  0.74681980  0.34897253
   0.49363223  0.74681822  0.34896933
   0.25318177  0.50636774  0.34896933
   0.75292348  0.24707649  0.15007490
   0.75292297  0.00584083  0.15007564
   0.99415919  0.24707699  0.15007564
   0.74707675  0.25292331  0.65007495
   0.74707734  0.49415969  0.65007571
   0.50584033  0.25292270  0.65007571
   0.74681987  0.25318019  0.84897257
   0.50636776  0.25318177  0.84896937
   0.74681827  0.49363225  0.84896937
   0.75318031  0.24681966  0.34897259
   0.99363187  0.24681798  0.34896940
   0.75318197  0.00636815  0.34896940
   0.75292343  0.74707661  0.15007493
   0.75292282  0.50584056  0.15007570
   0.99415931  0.74707713  0.15007567
   0.74707667  0.75292349  0.65007490
   0.74707715  0.99415927  0.65007564
   0.50584058  0.75292286  0.65007567
   0.74681982  0.75318033  0.84897261
   0.50636796  0.75318190  0.84896940
   0.74681811  0.99363192  0.84896943
   0.75318027  0.74681975  0.34897257
   0.99363195  0.74681809  0.34896939
   0.75318186  0.50636794  0.34896936
   0.33333706  0.16666368  0.81225406
   0.16666368  0.33333709  0.31225406
   0.16666843  0.33333248  0.18630819
   0.33333246  0.16666843  0.68630816
   0.33333676  0.66666324  0.81225404
   0.16666349  0.83333651  0.31225408
   0.16666820  0.83333181  0.18630817
   0.33333209  0.66666791  0.68630819
   0.83333644  0.16666347  0.81225408
   0.66666325  0.33333678  0.31225404
   0.66666792  0.33333211  0.18630821
   0.83333173  0.16666817  0.68630815
   0.83333627  0.66666293  0.81225406
   0.66666297  0.83333630  0.31225406
   0.66666757  0.83333155  0.18630819
   0.83333152  0.66666754  0.68630816
Direct configuration=     3
   0.00000142  0.99999858  0.00031490
   0.99999858  0.00000142  0.50031490
   0.00000142  0.49999858  0.00031490
   0.99999857  0.50000141  0.50031490
   0.50000141  0.99999858  0.00031490
   0.49999859  0.00000142  0.50031490
   0.50000141  0.49999858  0.00031491
   0.49999858  0.50000141  0.50031491
   0.99999883  0.00000117  0.23874287
   0.00000117  0.99999883  0.73874284
   0.99999892  0.50000131  0.23874286
   0.00000107  0.49999868  0.73874283
   0.49999869  0.00000107  0.23874286
   0.50000131  0.99999893  0.73874283
   0.49999875  0.50000124  0.23874285
   0.50000124  0.49999875  0.73874283
   0.41674418  0.08325579  0.10508697
   0.41674418  0.33348415  0.10508660
   0.16651605  0.08325590  0.10508659
   0.08325580  0.41674421  0.60508699
   0.08325590  0.16651606  0.60508661
   0.33348416  0.41674421  0.60508662
   0.08180554  0.41819447  0.89494328
   0.33639270  0.41819408  0.89494500
   0.08180602  0.16360750  0.89494501
   0.41819444  0.08180553  0.39494323
   0.16360749  0.08180602  0.39494496
   0.41819405  0.33639268  0.39494495
   0.41674413  0.58325583  0.10508701
   0.41674407  0.83348389  0.10508663
   0.16651609  0.58325592  0.10508663
   0.08325580  0.91674415  0.60508696
   0.08325577  0.66651584  0.60508659
   0.33348417  0.91674417  0.60508659
   0.08180554  0.91819441  0.89494331
   0.33639270  0.91819404  0.89494502
   0.08180591  0.66360731  0.89494502
   0.41819440  0.58180557  0.39494320
   0.16360753  0.58180604  0.39494493
   0.41819396  0.83639245  0.39494493
   0.91674418  0.08325579  0.10508694
   0.91674419  0.33348418  0.10508657
   0.66651583  0.08325577  0.10508657
   0.58325586  0.41674416  0.60508703
   0.58325593  0.16651611  0.60508665
   0.83348386  0.41674407  0.60508665
   0.58180560  0.41819443  0.89494325
   0.83639243  0.41819396  0.89494497
   0.58180604  0.16360754  0.89494497
   0.91819443  0.08180554  0.39494326
   0.66360730  0.08180591  0.39494498
   0.91819406  0.33639271  0.39494498
   0.91674418  0.58325579  0.10508697
   0.91674410  0.83348394  0.10508659
   0.66651586  0.58325578  0.10508660
   0.58325579  0.91674415  0.60508699
   0.58325580  0.66651587  0.60508662
   0.83348389  0.91674404  0.60508661
   0.58180553  0.91819441  0.89494328
   0.83639245  0.91819392  0.89494501
   0.58180593  0.66360733  0.89494500
   0.91819443  0.58180553  0.39494323
   0.66360732  0.58180591  0.39494495
   0.91819398  0.83639250  0.39494496
   0.33330376  0.16669626  0.25953876
   0.16669627  0.33330378  0.75953880
   0.33330378  0.66669622  0.25953876
   0.16669631  0.83330370  0.75953881
   0.83330362  0.16669628  0.25953876
   0.66669623  0.33330380  0.75953880
   0.83330369  0.66669623  0.25953876
   0.66669627  0.83330372  0.75953880
   0.16666788  0.33333225  0.02594301
   0.33333223  0.16666788  0.52594301
   0.33333448  0.16666562  0.97406335
   0.16666563  0.33333450  0.47406335
   0.16666785  0.83333215  0.02594302
   0.33333218  0.66666783  0.52594298
   0.33333443  0.66666557  0.97406338
   0.16666560  0.83333441  0.47406333
   0.66666783  0.33333219  0.02594298
   0.83333208  0.16666783  0.52594302
   0.83333433  0.16666557  0.97406333
   0.66666558  0.33333445  0.47406338
   0.66666780  0.83333211  0.02594301
   0.83333207  0.66666777  0.52594301
   0.83333433  0.66666552  0.97406335
   0.66666555  0.83333436  0.47406335
   0.00000094  0.99999906  0.15327201
   0.99999906  0.00000094  0.65327198
   0.00000073  0.99999927  0.85038602
   0.99999927  0.00000073  0.35038595
   0.00000090  0.49999900  0.15327198
   0.99999909  0.50000099  0.65327196
   0.00000077  0.49999933  0.85038604
   0.99999923  0.50000067  0.35038597
   0.50000100  0.99999909  0.15327198
   0.49999900  0.00000091  0.65327196
   0.50000067  0.99999923  0.85038604
   0.49999933  0.00000077  0.35038597
   0.50000097  0.49999902  0.15327197
   0.49999902  0.50000097  0.65327195
   0.50000069  0.49999930  0.85038606
   0.49999930  0.50000069  0.35038599
   0.16666729  0.33333266  0.93756680
   0.33333264  0.16666728  0.43756680
   0.33333501  0.16666490  0.06195711
   0.16666490  0.33333503  0.56195710
   0.16666731  0.83333270  0.93756677
   0.33333266  0.66666734  0.43756685
   0.33333504  0.66666496  0.06195705
   0.16666493  0.83333508  0.56195714
   0.66666734  0.33333268  0.93756685
   0.83333262  0.16666728  0.43756677
   0.83333500  0.16666490  0.06195716
   0.66666497  0.33333505  0.56195703
   0.66666739  0.83333270  0.93756680
   0.83333267  0.66666735  0.43756680
   0.83333505  0.66666498  0.06195711
   0.66666502  0.83333508  0.56195710
   0.08932950  0.41067043  0.24949461
   0.08934667  0.17865712  0.24949536
   0.32134264  0.41065319  0.24949537
   0.41067043  0.08932949  0.74949454
   0.41065318  0.32134263  0.74949531
   0.17865711  0.08934666  0.74949530
   0.08932942  0.91067057  0.24949460
   0.08934667  0.67865721  0.24949537
   0.32134276  0.91065331  0.24949537
   0.41067038  0.58932958  0.74949455
   0.41065320  0.82134271  0.74949530
   0.17865731  0.58934677  0.74949530
   0.58932960  0.41067039  0.24949461
   0.58934677  0.17865732  0.24949537
   0.82134272  0.41065320  0.24949537
   0.91067058  0.08932943  0.74949453
   0.91065331  0.32134276  0.74949530
   0.67865724  0.08934669  0.74949530
   0.58932953  0.91067050  0.24949461
   0.58934676  0.67865734  0.24949537
   0.82134289  0.91065334  0.24949536
   0.91067051  0.58932954  0.74949454
   0.91065336  0.82134291  0.74949530
   0.67865737  0.58934678  0.74949531
   0.07382224  0.42617765  0.05561104
   0.07382239  0.14764052  0.05561074
   0.35235938  0.42617752  0.05561071
   0.42617764  0.07382224  0.55561103
   0.42617752  0.35235937  0.55561070
   0.14764053  0.07382239  0.55561073
   0.42578544  0.07421446  0.94608965
   0.14843218  0.07421386  0.94608964
   0.42578606  0.35156772  0.94608966
   0.07421446  0.42578546  0.44608965
   0.35156772  0.42578606  0.44608966
   0.07421386  0.14843218  0.44608964
   0.07382227  0.92617770  0.05561104
   0.07382239  0.64764055  0.05561072
   0.35235938  0.92617758  0.05561072
   0.42617770  0.57382230  0.55561103
   0.42617756  0.85235943  0.55561072
   0.14764057  0.57382244  0.55561072
   0.42578549  0.57421451  0.94608964
   0.14843222  0.57421389  0.94608964
   0.42578610  0.85156778  0.94608964
   0.07421447  0.92578549  0.44608964
   0.35156772  0.92578610  0.44608966
   0.07421386  0.64843220  0.44608966
   0.57382228  0.42617769  0.05561104
   0.57382244  0.14764056  0.05561074
   0.85235946  0.42617756  0.05561074
   0.92617777  0.07382230  0.55561103
   0.92617763  0.35235940  0.55561070
   0.64764057  0.07382241  0.55561070
   0.92578557  0.07421450  0.94608964
   0.64843223  0.07421389  0.94608966
   0.92578615  0.35156774  0.94608966
   0.57421448  0.42578549  0.44608964
   0.85156781  0.42578610  0.44608964
   0.57421390  0.14843221  0.44608964
   0.57382232  0.92617775  0.05561104
   0.57382245  0.64764057  0.05561071
   0.85235946  0.92617760  0.05561074
   0.92617778  0.57382234  0.55561103
   0.92617765  0.85235947  0.55561073
   0.64764059  0.57382247  0.55561070
   0.92578556  0.57421454  0.94608965
   0.64843225  0.57421393  0.94608966
   0.92578618  0.85156782  0.94608964
   0.57421451  0.92578553  0.44608965
   0.85156780  0.92578613  0.44608964
   0.57421391  0.64843223  0.44608966
   0.25292591  0.24707398  0.15007314
   0.25292538  0.00584565  0.15007391
   0.49415448  0.24707461  0.15007394
   0.24707399  0.25292591  0.65007311
   0.24707461  0.49415445  0.65007391
   0.00584565  0.25292538  0.65007388
   0.24681613  0.25318378  0.84897300
   0.00637518  0.25318546  0.84896977
   0.24681453  0.49362490  0.84896974
   0.25318378  0.24681613  0.34897296
   0.49362492  0.24681453  0.34896970
   0.25318545  0.00637518  0.34896972
   0.25292581  0.74707416  0.15007320
   0.25292522  0.50584529  0.15007398
   0.49415469  0.74707478  0.15007398
   0.24707400  0.75292602  0.65007309
   0.24707444  0.99415413  0.65007385
   0.00584583  0.75292553  0.65007385
   0.24681616  0.75318386  0.84897302
   0.00637533  0.75318557  0.84896979
   0.24681440  0.99362463  0.84896979
   0.25318370  0.74681627  0.34897292
   0.49362508  0.74681466  0.34896967
   0.25318533  0.50637490  0.34896967
   0.75292600  0.24707398  0.15007312
   0.75292548  0.00584581  0.15007388
   0.99415421  0.24707447  0.15007388
   0.74707423  0.25292583  0.65007316
   0.74707482  0.49415470  0.65007395
   0.50584531  0.25292522  0.65007395
   0.74681634  0.25318373  0.84897296
   0.50637492  0.25318533  0.84896971
   0.74681471  0.49362510  0.84896971
   0.75318384  0.24681613  0.34897297
   0.99362471  0.24681442  0.34896974
   0.75318553  0.00637531  0.34896974
   0.75292595  0.74707409  0.15007314
   0.75292534  0.50584554  0.15007394
   0.99415432  0.74707461  0.15007391
   0.74707416  0.75292601  0.65007311
   0.74707463  0.99415429  0.65007388
   0.50584556  0.75292538  0.65007391
   0.74681629  0.75318386  0.84897300
   0.50637512  0.75318546  0.84896974
   0.74681456  0.99362476  0.84896977
   0.75318380  0.74681622  0.34897296
   0.99362480  0.74681454  0.34896972
   0.75318542  0.50637510  0.34896970
   0.33333709  0.16666365  0.81225520
   0.16666365  0.33333712  0.31225520
   0.16666845  0.33333246  0.18630650
   0.33333244  0.16666845  0.68630647
   0.33333679  0.66666321  0.81225518
   0.16666346  0.83333655  0.31225522
   0.16666822  0.83333179  0.18630648
   0.33333207  0.66666793  0.68630650
   0.83333647  0.16666344  0.81225522
   0.66666322  0.33333681  0.31225518
   0.66666794  0.33333209  0.18630652
   0.83333171  0.16666819  0.68630646
   0.83333630  0.66666290  0.81225520
   0.66666294  0.83333633  0.31225520
   0.66666760  0.83333153  0.18630650
   0.83333150  0.66666756  0.68630647
Direct configuration=     4
   0.00000144  0.99999856  0.00031937
   0.99999856  0.00000144  0.50031937
   0.00000145  0.49999856  0.00031938
   0.99999855  0.50000143  0.50031938
   0.50000144  0.99999855  0.00031938
   0.49999856  0.00000145  0.50031938
   0.50000144  0.49999856  0.00031938
   0.49999856  0.50000144  0.50031938
   0.99999883  0.00000117  0.23872033
   0.00000117  0.99999883  0.73872031
   0.99999893  0.50000131  0.23872032
   0.00000107  0.49999869  0.73872030