Thu Jul 29 15:13:44 MST 2021
 running on   90 total cores
 distrk:  each k-point on   90 cores,    1 groups
 distr:  one band on    9 cores,   10 groups
 using from now: INCAR     
 vasp.5.4.4.18Apr17-6-g9f103f2a35 (build Sep 23 2020 14:43:34) complex          
  
 POSCAR found type information on POSCAR  Al Ca Mg O  Ti
 POSCAR found :  5 types and     256 ions
 scaLAPACK will be used

 ----------------------------------------------------------------------------- 
|                                                                             |
|  ADVICE TO THIS USER RUNNING 'VASP/VAMP'   (HEAR YOUR MASTER'S VOICE ...):  |
|                                                                             |
|      You have a (more or less) 'large supercell' and for larger cells       |
|      it might be more efficient to use real space projection operators      |
|      So try LREAL= Auto  in the INCAR   file.                               |
|      Mind: If you want to do a very accurate calculations keep the          |
|      reciprocal projection scheme          (i.e. LREAL=.FALSE.)             |
|                                                                             |
 ----------------------------------------------------------------------------- 

 LDA part: xc-table for Pade appr. of Perdew
 POSCAR, INCAR and KPOINTS ok, starting setup
 FFT: planning ...
 WAVECAR not read
 entering main loop
       N       E                     dE             d eps       ncg     rms          rms(c)
DAV:   1     0.189161109439E+05    0.18916E+05   -0.48113E+05154940   0.158E+03
DAV:   2     0.183184417746E+04   -0.17084E+05   -0.14414E+05148980   0.458E+02
DAV:   3    -0.179127719461E+04   -0.36231E+04   -0.33951E+04141210   0.211E+02
DAV:   4    -0.210537702994E+04   -0.31410E+03   -0.30661E+03172770   0.690E+01
DAV:   5    -0.212558382303E+04   -0.20207E+02   -0.20112E+02219420   0.176E+01    0.135E+02
DAV:   6    -0.165499190062E+04    0.47059E+03   -0.12276E+03213740   0.486E+01    0.542E+01
DAV:   7    -0.171296963000E+04   -0.57978E+02   -0.23458E+02184460   0.197E+01    0.458E+01
DAV:   8    -0.170384528752E+04    0.91243E+01   -0.29275E+01179450   0.102E+01    0.350E+01
DAV:   9    -0.176298978912E+04   -0.59145E+02   -0.40579E+01184760   0.102E+01    0.240E+01
DAV:  10    -0.181290957648E+04   -0.49920E+02   -0.33217E+01172560   0.845E+00    0.177E+01
DAV:  11    -0.186862840626E+04   -0.55719E+02   -0.73455E+01174300   0.107E+01    0.964E+00
DAV:  12    -0.187726866742E+04   -0.86403E+01   -0.17795E+01176190   0.504E+00    0.462E+00
DAV:  13    -0.187778059160E+04   -0.51192E+00   -0.37537E+00200360   0.234E+00    0.214E+00
DAV:  14    -0.187788947117E+04   -0.10888E+00   -0.47091E-01184610   0.932E-01    0.108E+00
DAV:  15    -0.187791896186E+04   -0.29491E-01   -0.12485E-01195990   0.515E-01    0.598E-01
DAV:  16    -0.187793300884E+04   -0.14047E-01   -0.35913E-02172560   0.302E-01    0.353E-01
DAV:  17    -0.187793553824E+04   -0.25294E-02   -0.13933E-02189470   0.181E-01    0.133E-01
DAV:  18    -0.187793660082E+04   -0.10626E-02   -0.39661E-03171840   0.822E-02    0.787E-02
DAV:  19    -0.187793690603E+04   -0.30522E-03   -0.83816E-04164990   0.417E-02    0.293E-02
DAV:  20    -0.187793694660E+04   -0.40564E-04   -0.12966E-04173890   0.171E-02    0.134E-02
DAV:  21    -0.187793695292E+04   -0.63254E-05   -0.36296E-05176710   0.778E-03    0.723E-03
DAV:  22    -0.187793695313E+04   -0.20300E-06   -0.48273E-06196730   0.311E-03    0.411E-03
DAV:  23    -0.187793695275E+04    0.37612E-06   -0.31210E-06170720   0.261E-03    0.352E-03
DAV:  24    -0.187793695253E+04    0.22084E-06   -0.10259E-06175760   0.168E-03    0.234E-03
DAV:  25    -0.187793695245E+04    0.81549E-07   -0.58982E-07140880   0.107E-03
   1 F= -.18779370E+04 E0= -.18779370E+04  d E =-.187794E+04  mag=    -0.0001
 curvature:   0.00 expect dE= 0.000E+00 dE for cont linesearch  0.000E+00
 trial: gam= 0.00000 g(F)=  0.000E+00 g(S)=  0.532E+02 ort = 0.000E+00 (trialstep = 0.100E+01)
 search vector abs. value=  0.532E+02
 bond charge predicted
       N       E                     dE             d eps       ncg     rms          rms(c)
DAV:   1    -0.209183286891E+04   -0.21390E+03   -0.43015E+03180360   0.885E+01    0.109E+02
DAV:   2    -0.199960464176E+04    0.92228E+02   -0.10188E+03184520   0.395E+01    0.140E+02
DAV:   3    -0.196261482042E+04    0.36990E+02   -0.52979E+02172650   0.879E+01    0.347E+01
DAV:   4    -0.193719985580E+04    0.25415E+02   -0.90542E+01216670   0.114E+01    0.312E+01
DAV:   5    -0.192064117847E+04    0.16559E+02   -0.10687E+01209640   0.493E+00    0.239E+01
DAV:   6    -0.189587403382E+04    0.24767E+02   -0.12563E+01240900   0.919E+00    0.136E+01
DAV:   7    -0.189240748697E+04    0.34665E+01   -0.91056E+00200490   0.390E+00    0.110E+01
DAV:   8    -0.189100773539E+04    0.13998E+01   -0.68590E-01213400   0.121E+00    0.104E+01
DAV:   9    -0.189027280859E+04    0.73493E+00   -0.68285E-02178330   0.490E-01    0.101E+01
DAV:  10    -0.188414831402E+04    0.61245E+01   -0.19725E+00222020   0.513E+00    0.687E+00
DAV:  11    -0.188138250725E+04    0.27658E+01   -0.55015E+00216540   0.438E+00    0.390E+00
DAV:  12    -0.188088708508E+04    0.49542E+00   -0.12681E+00184360   0.152E+00    0.219E+00
DAV:  13    -0.188049840487E+04    0.38868E+00   -0.33913E-01199750   0.156E+00    0.678E-01
DAV:  14    -0.188056158071E+04   -0.63176E-01   -0.43203E-01174150   0.746E-01    0.132E+00
DAV:  15    -0.188052272090E+04    0.38860E-01   -0.11931E-01166710   0.643E-01    0.514E-01
DAV:  16    -0.188053298082E+04   -0.10260E-01   -0.37180E-02198310   0.265E-01    0.585E-01
DAV:  17    -0.188052054070E+04    0.12440E-01   -0.13273E-02174020   0.332E-01    0.281E-01
DAV:  18    -0.188052092500E+04   -0.38430E-03   -0.10080E-02199340   0.134E-01    0.142E-01
DAV:  19    -0.188052013579E+04    0.78921E-03   -0.18481E-03189180   0.776E-02    0.564E-02
DAV:  20    -0.188052032615E+04   -0.19037E-03   -0.22108E-03192240   0.727E-02    0.986E-02
DAV:  21    -0.188052022746E+04    0.98694E-04   -0.64699E-04166770   0.322E-02    0.971E-02
DAV:  22    -0.188052011489E+04    0.11257E-03   -0.24001E-04189160   0.186E-02    0.537E-02
DAV:  23    -0.188052008601E+04    0.28883E-04   -0.26580E-04180120   0.212E-02    0.228E-02
DAV:  24    -0.188052010651E+04   -0.20505E-04   -0.33751E-05205560   0.867E-03    0.292E-02
DAV:  25    -0.188052008565E+04    0.20858E-04   -0.93545E-06177360   0.689E-03    0.179E-02
DAV:  26    -0.188052007994E+04    0.57113E-05   -0.53957E-06204760   0.314E-03    0.111E-02
DAV:  27    -0.188052007605E+04    0.38914E-05   -0.39295E-06225950   0.517E-03    0.296E-03
DAV:  28    -0.188052007608E+04   -0.32232E-07   -0.21222E-06161870   0.152E-03    0.284E-03
DAV:  29    -0.188052007597E+04    0.11399E-06   -0.14255E-07 99760   0.712E-04    0.195E-03
DAV:  30    -0.188052007595E+04    0.17812E-07   -0.23205E-07110250   0.691E-04
   2 F= -.18805201E+04 E0= -.18805129E+04  d E =-.258312E+01  mag=    -0.0000
 trial-energy change:   -2.583124  1 .order   -5.170040  -53.178291   42.838211
 step:   0.5135(harm=  0.5538)  dis= 0.00000  next Energy= -1891.239251 (dE=-0.133E+02)
 bond charge predicted
       N       E                     dE             d eps       ncg     rms          rms(c)
DAV:   1    -0.194200603315E+04   -0.61486E+02   -0.10412E+03170380   0.432E+01    0.573E+01
DAV:   2    -0.191518965317E+04    0.26816E+02   -0.31785E+02233520   0.299E+01    0.221E+01
DAV:   3    -0.189255037419E+04    0.22639E+02   -0.41265E+01210710   0.139E+01    0.760E+00
DAV:   4    -0.189117872136E+04    0.13717E+01   -0.75104E+00194800   0.436E+00    0.363E+00
DAV:   5    -0.189100539749E+04    0.17332E+00   -0.24200E+00206350   0.212E+00    0.210E+00
DAV:   6    -0.189091649624E+04    0.88901E-01   -0.27709E-01211410   0.829E-01    0.102E+00
DAV:   7    -0.189088212971E+04    0.34367E-01   -0.15038E-01200620   0.713E-01    0.570E-01
DAV:   8    -0.189087257559E+04    0.95541E-02   -0.27445E-02189250   0.412E-01    0.235E-01
DAV:   9    -0.189087295551E+04   -0.37992E-03   -0.16501E-02194550   0.176E-01    0.194E-01
DAV:  10    -0.189087249333E+04    0.46218E-03   -0.38381E-03171220   0.106E-01    0.973E-02
DAV:  11    -0.189087240795E+04    0.85378E-04   -0.87977E-04192480   0.524E-02    0.496E-02
DAV:  12    -0.189087240686E+04    0.10907E-05   -0.41809E-04204560   0.372E-02    0.336E-02
DAV:  13    -0.189087238382E+04    0.23043E-04   -0.13818E-04186990   0.280E-02    0.197E-02
DAV:  14    -0.189087237229E+04    0.11536E-04   -0.37950E-05189960   0.116E-02    0.517E-03
DAV:  15    -0.189087236986E+04    0.24220E-05   -0.66886E-06186960   0.332E-03    0.468E-03
DAV:  16    -0.189087236883E+04    0.10374E-05   -0.26544E-06205730   0.279E-03    0.272E-03
DAV:  17    -0.189087236852E+04    0.30534E-06   -0.67845E-07160940   0.148E-03    0.520E-04
DAV:  18    -0.189087236852E+04   -0.44674E-08   -0.15368E-07 92400   0.582E-04
   3 F= -.18908724E+04 E0= -.18908721E+04  d E =-.129354E+02  mag=    -0.0000
 curvature:  -0.27 expect dE=-0.183E-02 dE for cont linesearch -0.183E-02
 ZBRENT: interpolating
 opt :   0.5078  next Energy= -1890.874059 (dE=-0.129E+02)
 bond charge predicted
       N       E                     dE             d eps       ncg     rms          rms(c)
DAV:   1    -0.189088077453E+04   -0.84060E-02   -0.14160E-01173760   0.509E-01    0.630E-01
DAV:   2    -0.189087540184E+04    0.53727E-02   -0.29083E-02204930   0.252E-01    0.232E-01
DAV:   3    -0.189087455082E+04    0.85102E-03   -0.47225E-03198740   0.188E-01    0.152E-01
DAV:   4    -0.189087398158E+04    0.56924E-03   -0.47839E-04182140   0.708E-02    0.327E-02
DAV:   5    -0.189087399199E+04   -0.10402E-04   -0.28494E-04200260   0.222E-02    0.189E-02
DAV:   6    -0.189087398992E+04    0.20640E-05   -0.19957E-05178400   0.667E-03    0.121E-02
DAV:   7    -0.189087399111E+04   -0.11857E-05   -0.71263E-06182280   0.378E-03    0.600E-03
DAV:   8    -0.189087399404E+04   -0.29332E-05   -0.31938E-06175750   0.283E-03    0.197E-03
DAV:   9    -0.189087399537E+04   -0.13274E-05   -0.97027E-07164700   0.134E-03    0.184E-03
DAV:  10    -0.189087399656E+04   -0.11877E-05   -0.26610E-07116230   0.960E-04    0.480E-04
DAV:  11    -0.189087399745E+04   -0.89865E-06   -0.14640E-07 90590   0.548E-04    0.541E-04
DAV:  12    -0.189087399779E+04   -0.33822E-06   -0.28362E-08 81430   0.378E-04    0.148E-04
DAV:  13    -0.189087399784E+04   -0.50291E-07   -0.13024E-08 79320   0.201E-04
   4 F= -.18908740E+04 E0= -.18908737E+04  d E =-.129370E+02  mag=    -0.0000
 curvature:  -0.25 expect dE=-0.157E-04 dE for cont linesearch -0.157E-04
 ZBRENT: interpolating
 opt :   0.5072  next Energy= -1890.874015 (dE=-0.129E+02)
 bond charge predicted
       N       E                     dE             d eps       ncg     rms          rms(c)
DAV:   1    -0.189087406346E+04   -0.65671E-04   -0.16095E-03173730   0.543E-02    0.672E-02
DAV:   2    -0.189087400853E+04    0.54937E-04   -0.33074E-04204630   0.269E-02    0.248E-02
DAV:   3    -0.189087399831E+04    0.10219E-04   -0.53885E-05198810   0.202E-02    0.162E-02
DAV:   4    -0.189087399279E+04    0.55152E-05   -0.54686E-06182310   0.757E-03    0.349E-03
DAV:   5    -0.189087399477E+04   -0.19745E-05   -0.32514E-06200240   0.235E-03    0.205E-03
DAV:   6    -0.189087399490E+04   -0.13792E-06   -0.17596E-07110100   0.715E-04    0.133E-03
DAV:   7    -0.189087399518E+04   -0.27713E-06   -0.11266E-07 83760   0.532E-04    0.618E-04
DAV:   8    -0.189087399551E+04   -0.33286E-06   -0.73091E-08 79440   0.473E-04    0.136E-04
DAV:   9    -0.189087399567E+04   -0.15873E-06   -0.35806E-08 77570   0.293E-04    0.169E-04
DAV:  10    -0.189087399582E+04   -0.14814E-06   -0.61795E-09 76980   0.203E-04    0.445E-05
DAV:  11    -0.189087399587E+04   -0.48371E-07   -0.14402E-10 76140   0.845E-05
   5 F= -.18908740E+04 E0= -.18908737E+04  d E =-.129370E+02  mag=    -0.0000
 curvature:  -0.28 expect dE=-0.100E-08 dE for cont linesearch -0.100E-08
 trial: gam=-0.00001 g(F)=  0.000E+00 g(S)=  0.357E-08 ort = 0.435E-03 (trialstep = 0.901E+00)
 search vector abs. value=  0.100E-09
 reached required accuracy - stopping structural energy minimisation
Fri Jul 30 23:00:49 MST 2021
Detailed performance metrics for this job will be available at https://metrics.hpc.arizona.edu/#job_viewer?action=show&realm=SUPREMM&resource_id=73&local_job_id=1549908 by 8am on 2021/07/31.
