Ca2Al24O38                              
           1
    11.138800    0.000000    0.000000
    -5.569400    9.646483    0.000000
     0.000000    0.000000   21.781500
   Al   Ca   Mg   O    Ti
  64   8  16 152  16
Direct configuration=     1
   0.00000000  0.00000000  0.00000000
   0.00000000  0.00000000  0.50000000
   1.00000000  0.50000000  0.00000000
   1.00000000  0.50000000  0.50000000
   0.50000000  0.00000000  0.00000000
   0.50000000  0.00000000  0.50000000
   0.50000000  0.50000000  0.00000000
   0.50000000  0.50000000  0.50000000
   0.00000000  0.00000000  0.25000000
   0.00000000  0.00000000  0.74999998
   1.00000000  0.50000000  0.25000000
   1.00000000  0.50000000  0.74999998
   0.50000000  0.00000000  0.25000000
   0.50000000  0.00000000  0.74999998
   0.50000000  0.50000000  0.25000000
   0.50000000  0.50000000  0.74999998
   0.41589997  0.08410000  0.11008000
   0.41589997  0.33180002  0.11008000
   0.16820000  0.08410000  0.11008000
   0.08410001  0.41589999  0.61008002
   0.08410000  0.16820001  0.61008002
   0.33180003  0.41589999  0.61008002
   0.08410001  0.41589999  0.88992002
   0.33180003  0.41589999  0.88992002
   0.08410000  0.16820001  0.88992002
   0.41589997  0.08410000  0.38991998
   0.16820000  0.08410000  0.38991998
   0.41589997  0.33180002  0.38991998
   0.41589997  0.58410000  0.11008000
   0.41589999  0.83179999  0.11008000
   0.16819999  0.58410000  0.11008000
   0.08410001  0.91589994  0.61008002
   0.08410000  0.66820000  0.61008002
   0.33180000  0.91589994  0.61008002
   0.08410001  0.91589994  0.88992002
   0.33180000  0.91589994  0.88992002
   0.08410000  0.66820000  0.88992002
   0.41589997  0.58410000  0.38991998
   0.16819999  0.58410000  0.38991998
   0.41589999  0.83179999  0.38991998
   0.91589997  0.08410000  0.11008000
   0.91589997  0.33180002  0.11008000
   0.66819999  0.08410000  0.11008000
   0.58410003  0.41589999  0.61008002
   0.58410000  0.16820001  0.61008002
   0.83179996  0.41589999  0.61008002
   0.58410003  0.41589999  0.88992002
   0.83179996  0.41589999  0.88992002
   0.58410000  0.16820001  0.88992002
   0.91589997  0.08410000  0.38991998
   0.66819999  0.08410000  0.38991998
   0.91589997  0.33180002  0.38991998
   0.91589997  0.58410000  0.11008000
   0.91589999  0.83179999  0.11008000
   0.66819999  0.58410000  0.11008000
   0.58410001  0.91589994  0.61008002
   0.58410002  0.66820000  0.61008002
   0.83179994  0.91589994  0.61008002
   0.58410001  0.91589994  0.88992002
   0.83179994  0.91589994  0.88992002
   0.58410002  0.66820000  0.88992002
   0.91589997  0.58410000  0.38991998
   0.66819999  0.58410000  0.38991998
   0.91589999  0.83179999  0.38991998
   0.33332999  0.16667000  0.25016999
   0.16667000  0.33333001  0.75017003
   0.33332999  0.66667001  0.25016999
   0.16667002  0.83332998  0.75017003
   0.83332990  0.16667000  0.25016999
   0.66667001  0.33333001  0.75017003
   0.83332995  0.66667001  0.25016999
   0.66667004  0.83332998  0.75017003
   0.16667000  0.33333001  0.02887000
   0.33332999  0.16667000  0.52887000
   0.33332999  0.16667000  0.97113000
   0.16667000  0.33333001  0.47113000
   0.16667002  0.83332998  0.02887000
   0.33332999  0.66667001  0.52887000
   0.33332999  0.66667001  0.97113000
   0.16667002  0.83332998  0.47113000
   0.66667001  0.33333001  0.02887000
   0.83332990  0.16667000  0.52887000
   0.83332990  0.16667000  0.97113000
   0.66667001  0.33333001  0.47113000
   0.66667004  0.83332998  0.02887000
   0.83332995  0.66667001  0.52887000
   0.83332995  0.66667001  0.97113000
   0.66667004  0.83332998  0.47113000
   0.00000000  0.00000000  0.15136000
   0.00000000  0.00000000  0.65135998
   0.00000000  0.00000000  0.84864007
   0.00000000  0.00000000  0.34864000
   1.00000000  0.50000000  0.15136000
   1.00000000  0.50000000  0.65135998
   1.00000000  0.50000000  0.84864007
   1.00000000  0.50000000  0.34864000
   0.50000000  0.00000000  0.15136000
   0.50000000  0.00000000  0.65135998
   0.50000000  0.00000000  0.84864007
   0.50000000  0.00000000  0.34864000
   0.50000000  0.50000000  0.15136000
   0.50000000  0.50000000  0.65135998
   0.50000000  0.50000000  0.84864007
   0.50000000  0.50000000  0.34864000
   0.16667000  0.33333001  0.94584002
   0.33332999  0.16667000  0.44584002
   0.33332999  0.16667000  0.05416000
   0.16667000  0.33333001  0.55415998
   0.16667002  0.83332998  0.94584002
   0.33332999  0.66667001  0.44584002
   0.33332999  0.66667001  0.05416000
   0.16667002  0.83332998  0.55415998
   0.66667001  0.33333001  0.94584002
   0.83332990  0.16667000  0.44584002
   0.83332990  0.16667000  0.05416000
   0.66667001  0.33333001  0.55415998
   0.66667004  0.83332998  0.94584002
   0.83332995  0.66667001  0.44584002
   0.83332995  0.66667001  0.05416000
   0.66667004  0.83332998  0.55415998
   0.09084001  0.40915998  0.25033000
   0.09084001  0.18169001  0.25033000
   0.31831001  0.40915998  0.25033000
   0.40915997  0.09084000  0.75032993
   0.40915997  0.31831000  0.75032993
   0.18169000  0.09084000  0.75032993
   0.09083999  0.90916000  0.25033000
   0.09083998  0.68168997  0.25033000
   0.31831000  0.90916000  0.25033000
   0.40915997  0.59083999  0.75032993
   0.40915998  0.81831002  0.75032993
   0.18169000  0.59083999  0.75032993
   0.59084002  0.40915998  0.25033000
   0.59084000  0.18169001  0.25033000
   0.81831003  0.40915998  0.25033000
   0.90916001  0.09084000  0.75032993
   0.90916001  0.31831000  0.75032993
   0.68169000  0.09084000  0.75032993
   0.59083999  0.90916000  0.25033000
   0.59083998  0.68168997  0.25033000
   0.81831000  0.90916000  0.25033000
   0.90916001  0.59083999  0.75032993
   0.90916002  0.81831002  0.75032993
   0.68169000  0.59083999  0.75032993
   0.07749999  0.42250000  0.05284000
   0.07750000  0.15500000  0.05284000
   0.34500001  0.42250000  0.05284000
   0.42249998  0.07750000  0.55283999
   0.42250000  0.34500000  0.55283999
   0.15500000  0.07750000  0.55283999
   0.42249998  0.07750000  0.94716001
   0.15500000  0.07750000  0.94716001
   0.42250000  0.34500000  0.94716001
   0.07749999  0.42250000  0.44716001
   0.34500001  0.42250000  0.44716001
   0.07750000  0.15500000  0.44716001
   0.07749997  0.92250000  0.05284000
   0.07749997  0.65499995  0.05284000
   0.34499998  0.92250000  0.05284000
   0.42250000  0.57750000  0.55283999
   0.42250000  0.84500000  0.55283999
   0.15500000  0.57750000  0.55283999
   0.42250000  0.57750000  0.94716001
   0.15500000  0.57750000  0.94716001
   0.42250000  0.84500000  0.94716001
   0.07749997  0.92250000  0.44716001
   0.34499998  0.92250000  0.44716001
   0.07749997  0.65499995  0.44716001
   0.57749997  0.42250000  0.05284000
   0.57750000  0.15500000  0.05284000
   0.84500003  0.42250000  0.05284000
   0.92250007  0.07750000  0.55283999
   0.92250004  0.34500000  0.55283999
   0.65499997  0.07750000  0.55283999
   0.92250007  0.07750000  0.94716001
   0.65499997  0.07750000  0.94716001
   0.92250004  0.34500000  0.94716001
   0.57749997  0.42250000  0.44716001
   0.84500003  0.42250000  0.44716001
   0.57750000  0.15500000  0.44716001
   0.57749997  0.92250000  0.05284000
   0.57749997  0.65499995  0.05284000
   0.84499998  0.92250000  0.05284000
   0.92250002  0.57750000  0.55283999
   0.92250004  0.84500000  0.55283999
   0.65499997  0.57750000  0.55283999
   0.92250002  0.57750000  0.94716001
   0.65499997  0.57750000  0.94716001
   0.92250004  0.84500000  0.94716001
   0.57749997  0.92250000  0.44716001
   0.84499998  0.92250000  0.44716001
   0.57749997  0.65499995  0.44716001
   0.25174000  0.24826000  0.15018000
   0.25174000  0.00348000  0.15018000
   0.49652002  0.24826000  0.15018000
   0.24826000  0.25174000  0.65017996
   0.24826000  0.49651999  0.65017996
   0.00348000  0.25174000  0.65017996
   0.24826000  0.25174000  0.84982004
   0.00348000  0.25174000  0.84982004
   0.24826000  0.49651999  0.84982004
   0.25174000  0.24826000  0.34981999
   0.49652002  0.24826000  0.34981999
   0.25174000  0.00348000  0.34981999
   0.25173998  0.74825999  0.15018000
   0.25174000  0.50348000  0.15018000
   0.49651997  0.74825999  0.15018000
   0.24826002  0.75174000  0.65017996
   0.24825997  0.99651994  0.65017996
   0.00348002  0.75174000  0.65017996
   0.24826002  0.75174000  0.84982004
   0.00348002  0.75174000  0.84982004
   0.24825997  0.99651994  0.84982004
   0.25173998  0.74825999  0.34981999
   0.49651997  0.74825999  0.34981999
   0.25174000  0.50348000  0.34981999
   0.75173998  0.24826000  0.15018000
   0.75173996  0.00348000  0.15018000
   0.99652002  0.24826000  0.15018000
   0.74826006  0.25174000  0.65017996
   0.74826004  0.49651999  0.65017996
   0.50348002  0.25174000  0.65017996
   0.74826006  0.25174000  0.84982004
   0.50348002  0.25174000  0.84982004
   0.74826004  0.49651999  0.84982004
   0.75173998  0.24826000  0.34981999
   0.99652002  0.24826000  0.34981999
   0.75173996  0.00348000  0.34981999
   0.75173993  0.74825999  0.15018000
   0.75173996  0.50348000  0.15018000
   0.99651997  0.74825999  0.15018000
   0.74826006  0.75174000  0.65017996
   0.74826001  0.99651994  0.65017996
   0.50348002  0.75174000  0.65017996
   0.74826006  0.75174000  0.84982004
   0.50348002  0.75174000  0.84982004
   0.74826001  0.99651994  0.84982004
   0.75173993  0.74825999  0.34981999
   0.99651997  0.74825999  0.34981999
   0.75173996  0.50348000  0.34981999
   0.33332999  0.16667000  0.80899998
   0.16667000  0.33333001  0.30899998
   0.16667000  0.33333001  0.19100000
   0.33332999  0.16667000  0.69099997
   0.33332999  0.66667001  0.80899998
   0.16667002  0.83332998  0.30899998
   0.16667002  0.83332998  0.19100000
   0.33332999  0.66667001  0.69099997
   0.83332990  0.16667000  0.80899998
   0.66667001  0.33333001  0.30899998
   0.66667001  0.33333001  0.19100000
   0.83332990  0.16667000  0.69099997
   0.83332995  0.66667001  0.80899998
   0.66667004  0.83332998  0.30899998
   0.66667004  0.83332998  0.19100000
   0.83332995  0.66667001  0.69099997
Ca2Al24O38                              
           1
    11.782584    0.000000    0.000000
    -5.891292   10.204017    0.000000
     0.000000    0.000000   23.040396
   Al   Ca   Mg   O    Ti
  64   8  16 152  16
Direct configuration=     2
   0.00000000  0.00000000  0.00000000
   0.00000000  0.00000000  0.50000000
   1.00000000  0.50000000  0.00000000
   1.00000000  0.50000000  0.50000000
   0.50000000  0.00000000  0.00000000
   0.50000000  0.00000000  0.50000000
   0.50000000  0.50000000  0.00000000
   0.50000000  0.50000000  0.50000000
   0.00000000  0.00000000  0.25000000
   0.00000000  0.00000000  0.74999998
   1.00000000  0.50000000  0.25000000
   1.00000000  0.50000000  0.74999998
   0.50000000  0.00000000  0.25000000
   0.50000000  0.00000000  0.74999998
   0.50000000  0.50000000  0.25000000
   0.50000000  0.50000000  0.74999998
   0.41589997  0.08410000  0.11008000
   0.41589997  0.33180002  0.11008000
   0.16820000  0.08410000  0.11008000
   0.08410001  0.41589999  0.61008002
   0.08410000  0.16820001  0.61008002
   0.33180003  0.41589999  0.61008002
   0.08410001  0.41589999  0.88992002
   0.33180003  0.41589999  0.88992002
   0.08410000  0.16820001  0.88992002
   0.41589997  0.08410000  0.38991998
   0.16820000  0.08410000  0.38991998
   0.41589997  0.33180002  0.38991998
   0.41589997  0.58410000  0.11008000
   0.41589999  0.83179999  0.11008000
   0.16819999  0.58410000  0.11008000
   0.08410001  0.91589994  0.61008002
   0.08410000  0.66820000  0.61008002
   0.33180000  0.91589994  0.61008002
   0.08410001  0.91589994  0.88992002
   0.33180000  0.91589994  0.88992002
   0.08410000  0.66820000  0.88992002
   0.41589997  0.58410000  0.38991998
   0.16819999  0.58410000  0.38991998
   0.41589999  0.83179999  0.38991998
   0.91589997  0.08410000  0.11008000
   0.91589997  0.33180002  0.11008000
   0.66819999  0.08410000  0.11008000
   0.58410003  0.41589999  0.61008002
   0.58410000  0.16820001  0.61008002
   0.83179996  0.41589999  0.61008002
   0.58410003  0.41589999  0.88992002
   0.83179996  0.41589999  0.88992002
   0.58410000  0.16820001  0.88992002
   0.91589997  0.08410000  0.38991998
   0.66819999  0.08410000  0.38991998
   0.91589997  0.33180002  0.38991998
   0.91589997  0.58410000  0.11008000
   0.91589999  0.83179999  0.11008000
   0.66819999  0.58410000  0.11008000
   0.58410001  0.91589994  0.61008002
   0.58410002  0.66820000  0.61008002
   0.83179994  0.91589994  0.61008002
   0.58410001  0.91589994  0.88992002
   0.83179994  0.91589994  0.88992002
   0.58410002  0.66820000  0.88992002
   0.91589997  0.58410000  0.38991998
   0.66819999  0.58410000  0.38991998
   0.91589999  0.83179999  0.38991998
   0.33332999  0.16667000  0.25016999
   0.16667000  0.33333001  0.75017003
   0.33332999  0.66667001  0.25016999
   0.16667002  0.83332998  0.75017003
   0.83332990  0.16667000  0.25016999
   0.66667001  0.33333001  0.75017003
   0.83332995  0.66667001  0.25016999
   0.66667004  0.83332998  0.75017003
   0.16667000  0.33333001  0.02887000
   0.33332999  0.16667000  0.52887000
   0.33332999  0.16667000  0.97113000
   0.16667000  0.33333001  0.47113000
   0.16667002  0.83332998  0.02887000
   0.33332999  0.66667001  0.52887000
   0.33332999  0.66667001  0.97113000
   0.16667002  0.83332998  0.47113000
   0.66667001  0.33333001  0.02887000
   0.83332990  0.16667000  0.52887000
   0.83332990  0.16667000  0.97113000
   0.66667001  0.33333001  0.47113000
   0.66667004  0.83332998  0.02887000
   0.83332995  0.66667001  0.52887000
   0.83332995  0.66667001  0.97113000
   0.66667004  0.83332998  0.47113000
   0.00000000  0.00000000  0.15136000
   0.00000000  0.00000000  0.65135998
   0.00000000  0.00000000  0.84864007
   0.00000000  0.00000000  0.34864000
   1.00000000  0.50000000  0.15136000
   1.00000000  0.50000000  0.65135998
   1.00000000  0.50000000  0.84864007
   1.00000000  0.50000000  0.34864000
   0.50000000  0.00000000  0.15136000
   0.50000000  0.00000000  0.65135998
   0.50000000  0.00000000  0.84864007
   0.50000000  0.00000000  0.34864000
   0.50000000  0.50000000  0.15136000
   0.50000000  0.50000000  0.65135998
   0.50000000  0.50000000  0.84864007
   0.50000000  0.50000000  0.34864000
   0.16667000  0.33333001  0.94584002
   0.33332999  0.16667000  0.44584002
   0.33332999  0.16667000  0.05416000
   0.16667000  0.33333001  0.55415998
   0.16667002  0.83332998  0.94584002
   0.33332999  0.66667001  0.44584002
   0.33332999  0.66667001  0.05416000
   0.16667002  0.83332998  0.55415998
   0.66667001  0.33333001  0.94584002
   0.83332990  0.16667000  0.44584002
   0.83332990  0.16667000  0.05416000
   0.66667001  0.33333001  0.55415998
   0.66667004  0.83332998  0.94584002
   0.83332995  0.66667001  0.44584002
   0.83332995  0.66667001  0.05416000
   0.66667004  0.83332998  0.55415998
   0.09084001  0.40915998  0.25033000
   0.09084001  0.18169001  0.25033000
   0.31831001  0.40915998  0.25033000
   0.40915997  0.09084000  0.75032993
   0.40915997  0.31831000  0.75032993
   0.18169000  0.09084000  0.75032993
   0.09083999  0.90916000  0.25033000
   0.09083998  0.68168997  0.25033000
   0.31831000  0.90916000  0.25033000
   0.40915997  0.59083999  0.75032993
   0.40915998  0.81831002  0.75032993
   0.18169000  0.59083999  0.75032993
   0.59084002  0.40915998  0.25033000
   0.59084000  0.18169001  0.25033000
   0.81831003  0.40915998  0.25033000
   0.90916001  0.09084000  0.75032993
   0.90916001  0.31831000  0.75032993
   0.68169000  0.09084000  0.75032993
   0.59083999  0.90916000  0.25033000
   0.59083998  0.68168997  0.25033000
   0.81831000  0.90916000  0.25033000
   0.90916001  0.59083999  0.75032993
   0.90916002  0.81831002  0.75032993
   0.68169000  0.59083999  0.75032993
   0.07749999  0.42250000  0.05284000
   0.07750000  0.15500000  0.05284000
   0.34500001  0.42250000  0.05284000
   0.42249998  0.07750000  0.55283999
   0.42250000  0.34500000  0.55283999
   0.15500000  0.07750000  0.55283999
   0.42249998  0.07750000  0.94716001
   0.15500000  0.07750000  0.94716001
   0.42250000  0.34500000  0.94716001
   0.07749999  0.42250000  0.44716001
   0.34500001  0.42250000  0.44716001
   0.07750000  0.15500000  0.44716001
   0.07749997  0.92250000  0.05284000
   0.07749997  0.65499995  0.05284000
   0.34499998  0.92250000  0.05284000
   0.42250000  0.57750000  0.55283999
   0.42250000  0.84500000  0.55283999
   0.15500000  0.57750000  0.55283999
   0.42250000  0.57750000  0.94716001
   0.15500000  0.57750000  0.94716001
   0.42250000  0.84500000  0.94716001
   0.07749997  0.92250000  0.44716001
   0.34499998  0.92250000  0.44716001
   0.07749997  0.65499995  0.44716001
   0.57749997  0.42250000  0.05284000
   0.57750000  0.15500000  0.05284000
   0.84500003  0.42250000  0.05284000
   0.92250007  0.07750000  0.55283999
   0.92250004  0.34500000  0.55283999
   0.65499997  0.07750000  0.55283999
   0.92250007  0.07750000  0.94716001
   0.65499997  0.07750000  0.94716001
   0.92250004  0.34500000  0.94716001
   0.57749997  0.42250000  0.44716001
   0.84500003  0.42250000  0.44716001
   0.57750000  0.15500000  0.44716001
   0.57749997  0.92250000  0.05284000
   0.57749997  0.65499995  0.05284000
   0.84499998  0.92250000  0.05284000
   0.92250002  0.57750000  0.55283999
   0.92250004  0.84500000  0.55283999
   0.65499997  0.57750000  0.55283999
   0.92250002  0.57750000  0.94716001
   0.65499997  0.57750000  0.94716001
   0.92250004  0.84500000  0.94716001
   0.57749997  0.92250000  0.44716001
   0.84499998  0.92250000  0.44716001
   0.57749997  0.65499995  0.44716001
   0.25174000  0.24826000  0.15018000
   0.25174000  0.00348000  0.15018000
   0.49652002  0.24826000  0.15018000
   0.24826000  0.25174000  0.65017996
   0.24826000  0.49651999  0.65017996
   0.00348000  0.25174000  0.65017996
   0.24826000  0.25174000  0.84982004
   0.00348000  0.25174000  0.84982004
   0.24826000  0.49651999  0.84982004
   0.25174000  0.24826000  0.34981999
   0.49652002  0.24826000  0.34981999
   0.25174000  0.00348000  0.34981999
   0.25173998  0.74825999  0.15018000
   0.25174000  0.50348000  0.15018000
   0.49651997  0.74825999  0.15018000
   0.24826002  0.75174000  0.65017996
   0.24825997  0.99651994  0.65017996
   0.00348002  0.75174000  0.65017996
   0.24826002  0.75174000  0.84982004
   0.00348002  0.75174000  0.84982004
   0.24825997  0.99651994  0.84982004
   0.25173998  0.74825999  0.34981999
   0.49651997  0.74825999  0.34981999
   0.25174000  0.50348000  0.34981999
   0.75173998  0.24826000  0.15018000
   0.75173996  0.00348000  0.15018000
   0.99652002  0.24826000  0.15018000
   0.74826006  0.25174000  0.65017996
   0.74826004  0.49651999  0.65017996
   0.50348002  0.25174000  0.65017996
   0.74826006  0.25174000  0.84982004
   0.50348002  0.25174000  0.84982004
   0.74826004  0.49651999  0.84982004
   0.75173998  0.24826000  0.34981999
   0.99652002  0.24826000  0.34981999
   0.75173996  0.00348000  0.34981999
   0.75173993  0.74825999  0.15018000
   0.75173996  0.50348000  0.15018000
   0.99651997  0.74825999  0.15018000
   0.74826006  0.75174000  0.65017996
   0.74826001  0.99651994  0.65017996
   0.50348002  0.75174000  0.65017996
   0.74826006  0.75174000  0.84982004
   0.50348002  0.75174000  0.84982004
   0.74826001  0.99651994  0.84982004
   0.75173993  0.74825999  0.34981999
   0.99651997  0.74825999  0.34981999
   0.75173996  0.50348000  0.34981999
   0.33332999  0.16667000  0.80899998
   0.16667000  0.33333001  0.30899998
   0.16667000  0.33333001  0.19100000
   0.33332999  0.16667000  0.69099997
   0.33332999  0.66667001  0.80899998
   0.16667002  0.83332998  0.30899998
   0.16667002  0.83332998  0.19100000
   0.33332999  0.66667001  0.69099997
   0.83332990  0.16667000  0.80899998
   0.66667001  0.33333001  0.30899998
   0.66667001  0.33333001  0.19100000
   0.83332990  0.16667000  0.69099997
   0.83332995  0.66667001  0.80899998
   0.66667004  0.83332998  0.30899998
   0.66667004  0.83332998  0.19100000
   0.83332995  0.66667001  0.69099997
Ca2Al24O38                              
           1
    11.469358    0.000000    0.000000
    -5.734679    9.932755    0.000000
     0.000000    0.000000   22.427894
   Al   Ca   Mg   O    Ti
  64   8  16 152  16
Direct configuration=     3
   0.00000000  0.00000000  0.00000000
   0.00000000  0.00000000  0.50000000
   1.00000000  0.50000000  0.00000000
   1.00000000  0.50000000  0.50000000
   0.50000000  0.00000000  0.00000000
   0.50000000  0.00000000  0.50000000
   0.50000000  0.50000000  0.00000000
   0.50000000  0.50000000  0.50000000
   0.00000000  0.00000000  0.25000000
   0.00000000  0.00000000  0.74999998
   1.00000000  0.50000000  0.25000000
   1.00000000  0.50000000  0.74999998
   0.50000000  0.00000000  0.25000000
   0.50000000  0.00000000  0.74999998
   0.50000000  0.50000000  0.25000000
   0.50000000  0.50000000  0.74999998
   0.41589997  0.08410000  0.11008000
   0.41589997  0.33180002  0.11008000
   0.16820000  0.08410000  0.11008000
   0.08410001  0.41589999  0.61008002
   0.08410000  0.16820001  0.61008002
   0.33180003  0.41589999  0.61008002
   0.08410001  0.41589999  0.88992002
   0.33180003  0.41589999  0.88992002
   0.08410000  0.16820001  0.88992002
   0.41589997  0.08410000  0.38991998
   0.16820000  0.08410000  0.38991998
   0.41589997  0.33180002  0.38991998
   0.41589997  0.58410000  0.11008000
   0.41589999  0.83179999  0.11008000
   0.16819999  0.58410000  0.11008000
   0.08410001  0.91589994  0.61008002
   0.08410000  0.66820000  0.61008002
   0.33180000  0.91589994  0.61008002
   0.08410001  0.91589994  0.88992002
   0.33180000  0.91589994  0.88992002
   0.08410000  0.66820000  0.88992002
   0.41589997  0.58410000  0.38991998
   0.16819999  0.58410000  0.38991998
   0.41589999  0.83179999  0.38991998
   0.91589997  0.08410000  0.11008000
   0.91589997  0.33180002  0.11008000
   0.66819999  0.08410000  0.11008000
   0.58410003  0.41589999  0.61008002
   0.58410000  0.16820001  0.61008002
   0.83179996  0.41589999  0.61008002
   0.58410003  0.41589999  0.88992002
   0.83179996  0.41589999  0.88992002
   0.58410000  0.16820001  0.88992002
   0.91589997  0.08410000  0.38991998
   0.66819999  0.08410000  0.38991998
   0.91589997  0.33180002  0.38991998
   0.91589997  0.58410000  0.11008000
   0.91589999  0.83179999  0.11008000
   0.66819999  0.58410000  0.11008000
   0.58410001  0.91589994  0.61008002
   0.58410002  0.66820000  0.61008002
   0.83179994  0.91589994  0.61008002
   0.58410001  0.91589994  0.88992002
   0.83179994  0.91589994  0.88992002
   0.58410002  0.66820000  0.88992002
   0.91589997  0.58410000  0.38991998
   0.66819999  0.58410000  0.38991998
   0.91589999  0.83179999  0.38991998
   0.33332999  0.16667000  0.25016999
   0.16667000  0.33333001  0.75017003
   0.33332999  0.66667001  0.25016999
   0.16667002  0.83332998  0.75017003
   0.83332990  0.16667000  0.25016999
   0.66667001  0.33333001  0.75017003
   0.83332995  0.66667001  0.25016999
   0.66667004  0.83332998  0.75017003
   0.16667000  0.33333001  0.02887000
   0.33332999  0.16667000  0.52887000
   0.33332999  0.16667000  0.97113000
   0.16667000  0.33333001  0.47113000
   0.16667002  0.83332998  0.02887000
   0.33332999  0.66667001  0.52887000
   0.33332999  0.66667001  0.97113000
   0.16667002  0.83332998  0.47113000
   0.66667001  0.33333001  0.02887000
   0.83332990  0.16667000  0.52887000
   0.83332990  0.16667000  0.97113000
   0.66667001  0.33333001  0.47113000
   0.66667004  0.83332998  0.02887000
   0.83332995  0.66667001  0.52887000
   0.83332995  0.66667001  0.97113000
   0.66667004  0.83332998  0.47113000
   0.00000000  0.00000000  0.15136000
   0.00000000  0.00000000  0.65135998
   0.00000000  0.00000000  0.84864007
   0.00000000  0.00000000  0.34864000
   1.00000000  0.50000000  0.15136000
   1.00000000  0.50000000  0.65135998
   1.00000000  0.50000000  0.84864007
   1.00000000  0.50000000  0.34864000
   0.50000000  0.00000000  0.15136000
   0.50000000  0.00000000  0.65135998
   0.50000000  0.00000000  0.84864007
   0.50000000  0.00000000  0.34864000
   0.50000000  0.50000000  0.15136000
   0.50000000  0.50000000  0.65135998
   0.50000000  0.50000000  0.84864007
   0.50000000  0.50000000  0.34864000
   0.16667000  0.33333001  0.94584002
   0.33332999  0.16667000  0.44584002
   0.33332999  0.16667000  0.05416000
   0.16667000  0.33333001  0.55415998
   0.16667002  0.83332998  0.94584002
   0.33332999  0.66667001  0.44584002
   0.33332999  0.66667001  0.05416000
   0.16667002  0.83332998  0.55415998
   0.66667001  0.33333001  0.94584002
   0.83332990  0.16667000  0.44584002
   0.83332990  0.16667000  0.05416000
   0.66667001  0.33333001  0.55415998
   0.66667004  0.83332998  0.94584002
   0.83332995  0.66667001  0.44584002
   0.83332995  0.66667001  0.05416000
   0.66667004  0.83332998  0.55415998
   0.09084001  0.40915998  0.25033000
   0.09084001  0.18169001  0.25033000
   0.31831001  0.40915998  0.25033000
   0.40915997  0.09084000  0.75032993
   0.40915997  0.31831000  0.75032993
   0.18169000  0.09084000  0.75032993
   0.09083999  0.90916000  0.25033000
   0.09083998  0.68168997  0.25033000
   0.31831000  0.90916000  0.25033000
   0.40915997  0.59083999  0.75032993
   0.40915998  0.81831002  0.75032993
   0.18169000  0.59083999  0.75032993
   0.59084002  0.40915998  0.25033000
   0.59084000  0.18169001  0.25033000
   0.81831003  0.40915998  0.25033000
   0.90916001  0.09084000  0.75032993
   0.90916001  0.31831000  0.75032993
   0.68169000  0.09084000  0.75032993
   0.59083999  0.90916000  0.25033000
   0.59083998  0.68168997  0.25033000
   0.81831000  0.90916000  0.25033000
   0.90916001  0.59083999  0.75032993
   0.90916002  0.81831002  0.75032993
   0.68169000  0.59083999  0.75032993
   0.07749999  0.42250000  0.05284000
   0.07750000  0.15500000  0.05284000
   0.34500001  0.42250000  0.05284000
   0.42249998  0.07750000  0.55283999
   0.42250000  0.34500000  0.55283999
   0.15500000  0.07750000  0.55283999
   0.42249998  0.07750000  0.94716001
   0.15500000  0.07750000  0.94716001
   0.42250000  0.34500000  0.94716001
   0.07749999  0.42250000  0.44716001
   0.34500001  0.42250000  0.44716001
   0.07750000  0.15500000  0.44716001
   0.07749997  0.92250000  0.05284000
   0.07749997  0.65499995  0.05284000
   0.34499998  0.92250000  0.05284000
   0.42250000  0.57750000  0.55283999
   0.42250000  0.84500000  0.55283999
   0.15500000  0.57750000  0.55283999
   0.42250000  0.57750000  0.94716001
   0.15500000  0.57750000  0.94716001
   0.42250000  0.84500000  0.94716001
   0.07749997  0.92250000  0.44716001
   0.34499998  0.92250000  0.44716001
   0.07749997  0.65499995  0.44716001
   0.57749997  0.42250000  0.05284000
   0.57750000  0.15500000  0.05284000
   0.84500003  0.42250000  0.05284000
   0.92250007  0.07750000  0.55283999
   0.92250004  0.34500000  0.55283999
   0.65499997  0.07750000  0.55283999
   0.92250007  0.07750000  0.94716001
   0.65499997  0.07750000  0.94716001
   0.92250004  0.34500000  0.94716001
   0.57749997  0.42250000  0.44716001
   0.84500003  0.42250000  0.44716001
   0.57750000  0.15500000  0.44716001
   0.57749997  0.92250000  0.05284000
   0.57749997  0.65499995  0.05284000
   0.84499998  0.92250000  0.05284000
   0.92250002  0.57750000  0.55283999
   0.92250004  0.84500000  0.55283999
   0.65499997  0.57750000  0.55283999
   0.92250002  0.57750000  0.94716001
   0.65499997  0.57750000  0.94716001
   0.92250004  0.84500000  0.94716001
   0.57749997  0.92250000  0.44716001
   0.84499998  0.92250000  0.44716001
   0.57749997  0.65499995  0.44716001
   0.25174000  0.24826000  0.15018000
   0.25174000  0.00348000  0.15018000
   0.49652002  0.24826000  0.15018000
   0.24826000  0.25174000  0.65017996
   0.24826000  0.49651999  0.65017996
   0.00348000  0.25174000  0.65017996
   0.24826000  0.25174000  0.84982004
   0.00348000  0.25174000  0.84982004
   0.24826000  0.49651999  0.84982004
   0.25174000  0.24826000  0.34981999
   0.49652002  0.24826000  0.34981999
   0.25174000  0.00348000  0.34981999
   0.25173998  0.74825999  0.15018000
   0.25174000  0.50348000  0.15018000
   0.49651997  0.74825999  0.15018000
   0.24826002  0.75174000  0.65017996
   0.24825997  0.99651994  0.65017996
   0.00348002  0.75174000  0.65017996
   0.24826002  0.75174000  0.84982004
   0.00348002  0.75174000  0.84982004
   0.24825997  0.99651994  0.84982004
   0.25173998  0.74825999  0.34981999
   0.49651997  0.74825999  0.34981999
   0.25174000  0.50348000  0.34981999
   0.75173998  0.24826000  0.15018000
   0.75173996  0.00348000  0.15018000
   0.99652002  0.24826000  0.15018000
   0.74826006  0.25174000  0.65017996
   0.74826004  0.49651999  0.65017996
   0.50348002  0.25174000  0.65017996
   0.74826006  0.25174000  0.84982004
   0.50348002  0.25174000  0.84982004
   0.74826004  0.49651999  0.84982004
   0.75173998  0.24826000  0.34981999
   0.99652002  0.24826000  0.34981999
   0.75173996  0.00348000  0.34981999
   0.75173993  0.74825999  0.15018000
   0.75173996  0.50348000  0.15018000
   0.99651997  0.74825999  0.15018000
   0.74826006  0.75174000  0.65017996
   0.74826001  0.99651994  0.65017996
   0.50348002  0.75174000  0.65017996
   0.74826006  0.75174000  0.84982004
   0.50348002  0.75174000  0.84982004
   0.74826001  0.99651994  0.84982004
   0.75173993  0.74825999  0.34981999
   0.99651997  0.74825999  0.34981999
   0.75173996  0.50348000  0.34981999
   0.33332999  0.16667000  0.80899998
   0.16667000  0.33333001  0.30899998
   0.16667000  0.33333001  0.19100000
   0.33332999  0.16667000  0.69099997
   0.33332999  0.66667001  0.80899998
   0.16667002  0.83332998  0.30899998
   0.16667002  0.83332998  0.19100000
   0.33332999  0.66667001  0.69099997
   0.83332990  0.16667000  0.80899998
   0.66667001  0.33333001  0.30899998
   0.66667001  0.33333001  0.19100000
   0.83332990  0.16667000  0.69099997
   0.83332995  0.66667001  0.80899998
   0.66667004  0.83332998  0.30899998
   0.66667004  0.83332998  0.19100000
   0.83332995  0.66667001  0.69099997
Ca2Al24O38                              
           1