       N       E                     dE             d eps       ncg     rms          rms(c)
DAV:   1     0.187560985516E+05    0.18756E+05   -0.47597E+05153530   0.156E+03
DAV:   2     0.190477325675E+04   -0.16851E+05   -0.14250E+05149230   0.450E+02
DAV:   3    -0.181370315509E+04   -0.37185E+04   -0.34918E+04142200   0.210E+02
DAV:   4    -0.214090757728E+04   -0.32720E+03   -0.31909E+03176590   0.696E+01
DAV:   5    -0.216230481889E+04   -0.21397E+02   -0.21293E+02219220   0.181E+01    0.133E+02
DAV:   6    -0.165180962140E+04    0.51050E+03   -0.12872E+03202110   0.520E+01    0.533E+01
DAV:   7    -0.167642558015E+04   -0.24616E+02   -0.22663E+02174480   0.229E+01    0.451E+01
DAV:   8    -0.165132657708E+04    0.25099E+02   -0.34861E+01167250   0.122E+01    0.363E+01
DAV:   9    -0.169153186560E+04   -0.40205E+02   -0.48754E+01178520   0.106E+01    0.226E+01
DAV:  10    -0.179497822673E+04   -0.10345E+03   -0.71393E+01158250   0.941E+00    0.176E+01
DAV:  11    -0.190914139501E+04   -0.11416E+03   -0.16770E+02172460   0.134E+01    0.888E+00
DAV:  12    -0.192192601440E+04   -0.12785E+02   -0.25334E+01167250   0.657E+00    0.604E+00
DAV:  13    -0.192267519107E+04   -0.74918E+00   -0.69388E+00201530   0.368E+00    0.370E+00
DAV:  14    -0.192293100383E+04   -0.25581E+00   -0.13771E+00165980   0.171E+00    0.212E+00
DAV:  15    -0.192296587017E+04   -0.34866E-01   -0.46709E-01197050   0.927E-01    0.800E-01
DAV:  16    -0.192300164181E+04   -0.35772E-01   -0.84739E-02172850   0.425E-01    0.543E-01
DAV:  17    -0.192301352119E+04   -0.11879E-01   -0.19072E-02169070   0.228E-01    0.296E-01
DAV:  18    -0.192301624784E+04   -0.27266E-02   -0.11531E-02185600   0.170E-01    0.122E-01
DAV:  19    -0.192301751757E+04   -0.12697E-02   -0.62697E-03191520   0.107E-01    0.121E-01
DAV:  20    -0.192301736198E+04    0.15559E-03   -0.75495E-04198930   0.516E-02    0.566E-02
DAV:  21    -0.192301736783E+04   -0.58472E-05   -0.49919E-04190640   0.295E-02    0.163E-02
DAV:  22    -0.192301737128E+04   -0.34558E-05   -0.55229E-05171790   0.161E-02    0.845E-03
DAV:  23    -0.192301737171E+04   -0.42496E-06   -0.27170E-05180520   0.812E-03    0.656E-03
DAV:  24    -0.192301736989E+04    0.18164E-05   -0.50743E-06209980   0.334E-03    0.387E-03
DAV:  25    -0.192301736832E+04    0.15723E-05   -0.18377E-06189720   0.170E-03    0.152E-03
DAV:  26    -0.192301736779E+04    0.52921E-06   -0.27018E-07131210   0.999E-04    0.166E-03
DAV:  27    -0.192301736765E+04    0.14053E-06   -0.21314E-07113670   0.989E-04    0.866E-04
DAV:  28    -0.192301736768E+04   -0.34081E-07   -0.14066E-07 95260   0.611E-04
   1 F= -.19230174E+04 E0= -.19230174E+04  d E =-.192302E+04  mag=     0.0000
       N       E                     dE             d eps       ncg     rms          rms(c)
DAV:   1    -0.192301736655E+04    0.11005E-05   -0.11515E-02165010   0.131E-01    0.199E-02
DAV:   2    -0.192301739983E+04   -0.33281E-04   -0.39937E-04170780   0.314E-02    0.169E-02
DAV:   3    -0.192301739703E+04    0.27949E-05   -0.34160E-05166820   0.117E-02    0.913E-03
DAV:   4    -0.192301739637E+04    0.66101E-06   -0.42156E-06177190   0.359E-03    0.710E-03
DAV:   5    -0.192301739620E+04    0.17451E-06   -0.56241E-06167720   0.368E-03    0.220E-03
DAV:   6    -0.192301739636E+04   -0.16131E-06   -0.12053E-06178230   0.160E-03    0.164E-03
DAV:   7    -0.192301739658E+04   -0.22487E-06   -0.54582E-07140400   0.107E-03    0.817E-04
DAV:   8    -0.192301739665E+04   -0.62893E-07   -0.69255E-08 89210   0.507E-04
   2 F= -.19230174E+04 E0= -.19230174E+04  d E =-.289650E-04  mag=     0.0000
       N       E                     dE             d eps       ncg     rms          rms(c)
DAV:   1    -0.192301739789E+04   -0.13082E-05   -0.29553E-04165120   0.210E-02    0.308E-03
DAV:   2    -0.192301739822E+04   -0.33145E-06   -0.10368E-05170460   0.504E-03    0.277E-03
DAV:   3    -0.192301739812E+04    0.10619E-06   -0.87639E-07158090   0.186E-03    0.155E-03
DAV:   4    -0.192301739800E+04    0.11383E-06   -0.82683E-08 95440   0.578E-04    0.121E-03
DAV:   5    -0.192301739779E+04    0.21089E-06   -0.22539E-07110390   0.720E-04    0.385E-04
DAV:   6    -0.192301739778E+04    0.98080E-08   -0.43503E-08 83180   0.378E-04
   3 F= -.19230174E+04 E0= -.19230174E+04  d E =-.301010E-04  mag=     0.0000
       N       E                     dE             d eps       ncg     rms          rms(c)
DAV:   1    -0.192301740050E+04   -0.27031E-05   -0.57207E-03173360   0.932E-02    0.123E-02
DAV:   2    -0.192301741985E+04   -0.19354E-04   -0.21469E-04177260   0.181E-02    0.745E-03
DAV:   3    -0.192301741929E+04    0.56371E-06   -0.56902E-06183280   0.405E-03    0.500E-03
DAV:   4    -0.192301741860E+04    0.68884E-06   -0.16661E-06186430   0.280E-03    0.292E-03
DAV:   5    -0.192301741849E+04    0.10435E-06   -0.16301E-06175720   0.210E-03    0.166E-03
DAV:   6    -0.192301741848E+04    0.17390E-07   -0.37021E-07126670   0.859E-04
   4 F= -.19230174E+04 E0= -.19230174E+04  d E =-.206929E-04  mag=     0.0000
       N       E                     dE             d eps       ncg     rms          rms(c)
DAV:   1    -0.192301740688E+04    0.11616E-04   -0.62555E-03172950   0.975E-02    0.133E-02
DAV:   2    -0.192301742795E+04   -0.21069E-04   -0.23605E-04177430   0.190E-02    0.787E-03
DAV:   3    -0.192301742728E+04    0.67055E-06   -0.63389E-06182760   0.430E-03    0.529E-03
DAV:   4    -0.192301742649E+04    0.78540E-06   -0.19053E-06188000   0.301E-03    0.311E-03
DAV:   5    -0.192301742636E+04    0.13446E-06   -0.18782E-06176140   0.230E-03    0.185E-03
DAV:   6    -0.192301742634E+04    0.19543E-07   -0.46403E-07136590   0.944E-04
   5 F= -.19230174E+04 E0= -.19230174E+04  d E =-.285530E-04  mag=     0.0000
       N       E                     dE             d eps       ncg     rms          rms(c)
DAV:   1    -0.192301742741E+04   -0.10495E-05   -0.35124E-03187160   0.800E-02    0.119E-02
DAV:   2    -0.192301744085E+04   -0.13449E-04   -0.16887E-04173630   0.158E-02    0.670E-03
DAV:   3    -0.192301744052E+04    0.33637E-06   -0.76984E-06197320   0.399E-03    0.497E-03
DAV:   4    -0.192301743978E+04    0.73353E-06   -0.13114E-06171070   0.201E-03    0.276E-03
DAV:   5    -0.192301743951E+04    0.27065E-06   -0.14063E-06163470   0.187E-03    0.200E-03
DAV:   6    -0.192301743946E+04    0.51077E-07   -0.26723E-07123680   0.989E-04
   6 F= -.19230174E+04 E0= -.19230174E+04  d E =-.131264E-04  mag=     0.0000
       N       E                     dE             d eps       ncg     rms          rms(c)
DAV:   1    -0.192301743874E+04    0.77341E-06   -0.25247E-04187020   0.215E-02    0.318E-03
DAV:   2    -0.192301743983E+04   -0.10891E-05   -0.12994E-05174540   0.434E-03    0.215E-03
DAV:   3    -0.192301743978E+04    0.52154E-07   -0.45313E-07147570   0.105E-03
   7 F= -.19230174E+04 E0= -.19230174E+04  d E =-.134410E-04  mag=     0.0000
       N       E                     dE             d eps       ncg     rms          rms(c)
DAV:   1    -0.192301743289E+04    0.69435E-05   -0.35958E-03196600   0.838E-02    0.996E-03
DAV:   2    -0.192301744809E+04   -0.15206E-04   -0.16541E-04166110   0.150E-02    0.656E-03
DAV:   3    -0.192301744787E+04    0.21659E-06   -0.63305E-06177680   0.425E-03    0.420E-03
DAV:   4    -0.192301744733E+04    0.54266E-06   -0.96419E-07177340   0.236E-03    0.283E-03
DAV:   5    -0.192301744698E+04    0.35668E-06   -0.15436E-06169770   0.233E-03    0.111E-03
DAV:   6    -0.192301744700E+04   -0.23370E-07   -0.58627E-07144460   0.964E-04
   8 F= -.19230174E+04 E0= -.19230174E+04  d E =-.722168E-05  mag=     0.0000
       N       E                     dE             d eps       ncg     rms          rms(c)
DAV:   1    -0.192301743995E+04    0.70304E-05   -0.25146E-03195960   0.702E-02    0.853E-03
DAV:   2    -0.192301745043E+04   -0.10488E-04   -0.11617E-04165900   0.128E-02    0.562E-03
DAV:   3    -0.192301745023E+04    0.19940E-06   -0.47146E-06174910   0.382E-03    0.354E-03
DAV:   4    -0.192301744979E+04    0.44044E-06   -0.64386E-07156750   0.203E-03    0.249E-03
DAV:   5    -0.192301744942E+04    0.37711E-06   -0.14116E-06171810   0.237E-03    0.105E-03
DAV:   6    -0.192301744945E+04   -0.34954E-07   -0.62910E-07146620   0.962E-04
   9 F= -.19230174E+04 E0= -.19230174E+04  d E =-.967440E-05  mag=     0.0000
       N       E                     dE             d eps       ncg     rms          rms(c)
DAV:   1    -0.192301744284E+04    0.65815E-05   -0.30747E-03205290   0.830E-02    0.992E-03
DAV:   2    -0.192301745931E+04   -0.16475E-04   -0.17583E-04169280   0.153E-02    0.645E-03
DAV:   3    -0.192301745955E+04   -0.23851E-06   -0.89946E-06170070   0.488E-03    0.412E-03
DAV:   4    -0.192301745955E+04   -0.57771E-08   -0.81810E-07164680   0.184E-03
  10 F= -.19230175E+04 E0= -.19230175E+04  d E =-.101029E-04  mag=     0.0000
       N       E                     dE             d eps       ncg     rms          rms(c)
DAV:   1    -0.192301744435E+04    0.15194E-04   -0.24512E-03205440   0.742E-02    0.890E-03
DAV:   2    -0.192301745725E+04   -0.12892E-04   -0.13627E-04169910   0.136E-02    0.574E-03
DAV:   3    -0.192301745754E+04   -0.28872E-06   -0.74446E-06171470   0.440E-03    0.364E-03
DAV:   4    -0.192301745761E+04   -0.76427E-07   -0.67914E-07159360   0.171E-03
  11 F= -.19230175E+04 E0= -.19230175E+04  d E =-.816016E-05  mag=     0.0000
       N       E                     dE             d eps       ncg     rms          rms(c)
DAV:   1    -0.192301745649E+04    0.10421E-05   -0.96129E-04204690   0.464E-02    0.512E-03
DAV:   2    -0.192301746096E+04   -0.44689E-05   -0.55015E-05166540   0.848E-03    0.377E-03
DAV:   3    -0.192301746085E+04    0.10736E-06   -0.25440E-06168230   0.267E-03    0.240E-03
DAV:   4    -0.192301746069E+04    0.16228E-06   -0.23270E-07124290   0.983E-04    0.168E-03
DAV:   5    -0.192301746052E+04    0.17215E-06   -0.42327E-07141040   0.100E-03    0.501E-04
DAV:   6    -0.192301746049E+04    0.32524E-07   -0.64994E-08 80110   0.472E-04
  12 F= -.19230175E+04 E0= -.19230175E+04  d E =-.110362E-04  mag=     0.0000
       N       E                     dE             d eps       ncg     rms          rms(c)
DAV:   1    -0.192301745380E+04    0.67202E-05   -0.29252E-03203920   0.768E-02    0.894E-03
DAV:   2    -0.192301746594E+04   -0.12143E-04   -0.13533E-04161120   0.137E-02    0.581E-03
DAV:   3    -0.192301746591E+04    0.35099E-07   -0.64301E-06173220   0.436E-03    0.345E-03
DAV:   4    -0.192301746563E+04    0.27681E-06   -0.65716E-07152370   0.168E-03    0.250E-03
DAV:   5    -0.192301746544E+04    0.19198E-06   -0.93221E-07157480   0.159E-03    0.717E-04
DAV:   6    -0.192301746543E+04    0.65047E-08   -0.21578E-07102670   0.689E-04
  13 F= -.19230175E+04 E0= -.19230175E+04  d E =-.494478E-05  mag=     0.0000
       N       E                     dE             d eps       ncg     rms          rms(c)
DAV:   1    -0.192301746329E+04    0.21499E-05   -0.43487E-04203080   0.296E-02    0.351E-03
DAV:   2    -0.192301746511E+04   -0.18168E-05   -0.20179E-05162640   0.528E-03    0.228E-03
DAV:   3    -0.192301746512E+04   -0.14028E-07   -0.91331E-07162990   0.166E-03
  14 F= -.19230175E+04 E0= -.19230175E+04  d E =-.463227E-05  mag=     0.0000
       N       E                     dE             d eps       ncg     rms          rms(c)
DAV:   1    -0.192301745862E+04    0.64812E-05   -0.20856E-03204630   0.648E-02    0.718E-03
DAV:   2    -0.192301746777E+04   -0.91457E-05   -0.96265E-05157820   0.113E-02    0.482E-03
DAV:   3    -0.192301746764E+04    0.13120E-06   -0.40629E-06178530   0.340E-03    0.312E-03
DAV:   4    -0.192301746746E+04    0.18264E-06   -0.54073E-07151030   0.154E-03    0.210E-03
DAV:   5    -0.192301746734E+04    0.11254E-06   -0.64159E-07151400   0.154E-03    0.569E-04
DAV:   6    -0.192301746737E+04   -0.28056E-07   -0.21834E-07100250   0.716E-04
  15 F= -.19230175E+04 E0= -.19230175E+04  d E =-.225217E-05  mag=     0.0000
       N       E                     dE             d eps       ncg     rms          rms(c)
DAV:   1    -0.192301746724E+04    0.10326E-06   -0.89023E-05205880   0.134E-02    0.142E-03
DAV:   2    -0.192301746751E+04   -0.27308E-06   -0.40917E-06165640   0.234E-03    0.993E-04
DAV:   3    -0.192301746748E+04    0.34139E-07   -0.13113E-07115390   0.635E-04
  16 F= -.19230175E+04 E0= -.19230175E+04  d E =-.235980E-05  mag=     0.0000
       N       E                     dE             d eps       ncg     rms          rms(c)
DAV:   1    -0.192301746723E+04    0.28187E-06   -0.42248E-04193660   0.284E-02    0.373E-03
DAV:   2    -0.192301746902E+04   -0.17889E-05   -0.18674E-05160060   0.591E-03    0.267E-03
DAV:   3    -0.192301746899E+04    0.35725E-07   -0.15463E-06170230   0.221E-03    0.161E-03
DAV:   4    -0.192301746900E+04   -0.13359E-07   -0.15239E-07111800   0.900E-04
  17 F= -.19230175E+04 E0= -.19230175E+04  d E =-.151875E-05  mag=     0.0000
       N       E                     dE             d eps       ncg     rms          rms(c)
DAV:   1    -0.192301746901E+04   -0.28260E-07   -0.18267E-07108070   0.793E-04    0.367E-04
DAV:   2    -0.192301746905E+04   -0.33673E-07   -0.78784E-08 94290   0.533E-04
  18 F= -.19230175E+04 E0= -.19230175E+04  d E =-.156733E-05  mag=     0.0000
       N       E                     dE             d eps       ncg     rms          rms(c)
DAV:   1    -0.192301746943E+04   -0.41272E-06   -0.32849E-04156380   0.219E-02    0.442E-03
DAV:   2    -0.192301746950E+04   -0.70693E-07   -0.12596E-05163420   0.653E-03    0.379E-03
DAV:   3    -0.192301746930E+04    0.20184E-06   -0.19427E-06157080   0.287E-03    0.160E-03
DAV:   4    -0.192301746912E+04    0.17149E-06   -0.29933E-07136080   0.103E-03    0.130E-03
DAV:   5    -0.192301746891E+04    0.21495E-06   -0.15165E-07 97800   0.730E-04    0.443E-04
DAV:   6    -0.192301746878E+04    0.12442E-06   -0.95403E-08 93610   0.619E-04    0.270E-04
DAV:   7    -0.192301746875E+04    0.31199E-07   -0.60236E-08 83340   0.443E-04
  19 F= -.19230175E+04 E0= -.19230175E+04  d E =0.294152E-06  mag=     0.0000
       N       E                     dE             d eps       ncg     rms          rms(c)
DAV:   1    -0.192301746858E+04    0.20636E-06   -0.13760E-04155770   0.141E-02    0.286E-03
DAV:   2    -0.192301746920E+04   -0.62451E-06   -0.51616E-06163440   0.421E-03    0.242E-03
DAV:   3    -0.192301746915E+04    0.53828E-07   -0.83907E-07154080   0.186E-03
  20 F= -.19230175E+04 E0= -.19230175E+04  d E =-.101369E-06  mag=     0.0000
