Sun Aug  8 18:47:11 MST 2021
 running on   90 total cores
 distrk:  each k-point on   90 cores,    1 groups
 distr:  one band on    9 cores,   10 groups
 using from now: INCAR     
 vasp.5.4.4.18Apr17-6-g9f103f2a35 (build Sep 23 2020 14:43:34) complex          
  
 POSCAR found type information on POSCAR  Al Ca Mg O  Ti
 POSCAR found :  5 types and     256 ions
 scaLAPACK will be used

 ----------------------------------------------------------------------------- 
|                                                                             |
|  ADVICE TO THIS USER RUNNING 'VASP/VAMP'   (HEAR YOUR MASTER'S VOICE ...):  |
|                                                                             |
|      You have a (more or less) 'large supercell' and for larger cells       |
|      it might be more efficient to use real space projection operators      |
|      So try LREAL= Auto  in the INCAR   file.                               |
|      Mind: If you want to do a very accurate calculations keep the          |
|      reciprocal projection scheme          (i.e. LREAL=.FALSE.)             |
|                                                                             |
 ----------------------------------------------------------------------------- 

 LDA part: xc-table for Pade appr. of Perdew
 POSCAR, INCAR and KPOINTS ok, starting setup
 FFT: planning ...
 WAVECAR not read
 entering main loop
       N       E                     dE             d eps       ncg     rms          rms(c)
DAV:   1     0.187170719537E+05    0.18717E+05   -0.47631E+05153750   0.156E+03
DAV:   2     0.188728342075E+04   -0.16830E+05   -0.14228E+05149470   0.450E+02
DAV:   3    -0.181470389137E+04   -0.37020E+04   -0.34772E+04142160   0.209E+02
DAV:   4    -0.213977887225E+04   -0.32507E+03   -0.31698E+03177190   0.693E+01
DAV:   5    -0.216091459436E+04   -0.21136E+02   -0.21031E+02219850   0.180E+01    0.133E+02
DAV:   6    -0.165491535564E+04    0.50600E+03   -0.12821E+03201000   0.516E+01    0.532E+01
DAV:   7    -0.168472142413E+04   -0.29806E+02   -0.21834E+02174690   0.224E+01    0.450E+01
DAV:   8    -0.166304771551E+04    0.21674E+02   -0.33625E+01168000   0.120E+01    0.362E+01
DAV:   9    -0.170899499248E+04   -0.45947E+02   -0.52814E+01175880   0.107E+01    0.226E+01
DAV:  10    -0.180353898680E+04   -0.94544E+02   -0.62105E+01157770   0.897E+00    0.176E+01
DAV:  11    -0.191282694501E+04   -0.10929E+03   -0.16720E+02174170   0.134E+01    0.873E+00
DAV:  12    -0.192162314964E+04   -0.87962E+01   -0.21365E+01169980   0.629E+00    0.597E+00
DAV:  13    -0.192232369764E+04   -0.70055E+00   -0.58508E+00193980   0.356E+00    0.349E+00
DAV:  14    -0.192267658416E+04   -0.35289E+00   -0.15318E+00165140   0.168E+00    0.219E+00
DAV:  15    -0.192269133289E+04   -0.14749E-01   -0.36034E-01198670   0.866E-01    0.788E-01
DAV:  16    -0.192272421119E+04   -0.32878E-01   -0.10059E-01171140   0.454E-01    0.499E-01
DAV:  17    -0.192273750160E+04   -0.13290E-01   -0.20321E-02158950   0.252E-01    0.347E-01
DAV:  18    -0.192273896318E+04   -0.14616E-02   -0.10527E-02181520   0.187E-01    0.143E-01
DAV:  19    -0.192274026493E+04   -0.13018E-02   -0.98055E-03187850   0.139E-01    0.136E-01
DAV:  20    -0.192274002292E+04    0.24202E-03   -0.11769E-03190790   0.577E-02    0.729E-02
DAV:  21    -0.192274003618E+04   -0.13259E-04   -0.54940E-04198420   0.307E-02    0.186E-02
DAV:  22    -0.192274003632E+04   -0.14440E-06   -0.66710E-05166350   0.178E-02    0.109E-02
DAV:  23    -0.192274003351E+04    0.28127E-05   -0.26508E-05195500   0.739E-03    0.871E-03
DAV:  24    -0.192274003008E+04    0.34292E-05   -0.63889E-06194060   0.389E-03    0.320E-03
DAV:  25    -0.192274002901E+04    0.10636E-05   -0.28327E-06192980   0.208E-03    0.272E-03
DAV:  26    -0.192274002885E+04    0.16594E-06   -0.31461E-07137900   0.120E-03    0.215E-03
DAV:  27    -0.192274002861E+04    0.24316E-06   -0.37176E-07135120   0.109E-03    0.115E-03
DAV:  28    -0.192274002859E+04    0.19427E-07   -0.14165E-07 95390   0.627E-04
   1 F= -.19227400E+04 E0= -.19227400E+04  d E =-.192274E+04  mag=     0.0000
 curvature:   0.00 expect dE= 0.000E+00 dE for cont linesearch  0.000E+00
 trial: gam= 0.00000 g(F)=  0.694E-01 g(S)=  0.000E+00 ort = 0.000E+00 (trialstep = 0.100E+01)
 search vector abs. value=  0.694E-01
 bond charge predicted
       N       E                     dE             d eps       ncg     rms          rms(c)
DAV:   1    -0.192274827768E+04   -0.82491E-02   -0.58217E+00158760   0.300E+00    0.429E-01
DAV:   2    -0.192276106393E+04   -0.12786E-01   -0.21891E-01193780   0.678E-01    0.350E-01
DAV:   3    -0.192275884063E+04    0.22233E-02   -0.13753E-02209050   0.184E-01    0.275E-01
DAV:   4    -0.192275658975E+04    0.22509E-02   -0.26022E-03194250   0.925E-02    0.170E-01
DAV:   5    -0.192275447535E+04    0.21144E-02   -0.49685E-03187960   0.137E-01    0.101E-01
DAV:   6    -0.192275429642E+04    0.17893E-03   -0.21042E-03201170   0.784E-02    0.869E-02
DAV:   7    -0.192275424967E+04    0.46743E-04   -0.20959E-03175570   0.623E-02    0.437E-02
DAV:   8    -0.192275419138E+04    0.58298E-04   -0.37528E-04185820   0.297E-02    0.207E-02
DAV:   9    -0.192275418278E+04    0.85938E-05   -0.81778E-05197590   0.126E-02    0.110E-02
DAV:  10    -0.192275418238E+04    0.40332E-06   -0.10682E-05188350   0.554E-03    0.761E-03
DAV:  11    -0.192275418215E+04    0.22922E-06   -0.66880E-06198680   0.368E-03    0.288E-03
DAV:  12    -0.192275418255E+04   -0.39584E-06   -0.29841E-06193550   0.219E-03    0.375E-03
DAV:  13    -0.192275418260E+04   -0.54046E-07   -0.27499E-07123070   0.121E-03
   2 F= -.19227542E+04 E0= -.19227542E+04  d E =-.141540E-01  mag=     0.0000
 trial-energy change:   -0.014154  1 .order   -0.014198   -0.069355    0.040958
 step:   0.6287(harm=  0.6287)  dis= 0.00358  next Energy= -1922.761831 (dE=-0.218E-01)
 bond charge predicted
       N       E                     dE             d eps       ncg     rms          rms(c)
DAV:   1    -0.192276097943E+04   -0.67969E-02   -0.80237E-01159130   0.111E+00    0.160E-01
DAV:   2    -0.192276275603E+04   -0.17766E-02   -0.30272E-02193950   0.252E-01    0.130E-01
DAV:   3    -0.192276245613E+04    0.29989E-03   -0.19288E-03209610   0.687E-02    0.103E-01
DAV:   4    -0.192276214509E+04    0.31104E-03   -0.36876E-04193560   0.340E-02    0.634E-02
DAV:   5    -0.192276185420E+04    0.29090E-03   -0.68587E-04187170   0.504E-02    0.379E-02
DAV:   6    -0.192276182663E+04    0.27563E-04   -0.28667E-04199820   0.294E-02    0.331E-02
DAV:   7    -0.192276181891E+04    0.77186E-05   -0.30775E-04174700   0.240E-02    0.168E-02
DAV:   8    -0.192276181116E+04    0.77537E-05   -0.55491E-05186010   0.111E-02    0.784E-03
DAV:   9    -0.192276180954E+04    0.16229E-05   -0.11725E-05194650   0.469E-03    0.418E-03
DAV:  10    -0.192276180901E+04    0.52818E-06   -0.14581E-06187170   0.205E-03    0.313E-03
DAV:  11    -0.192276180858E+04    0.43385E-06   -0.11757E-06175490   0.152E-03    0.103E-03
DAV:  12    -0.192276180850E+04    0.77518E-07   -0.42560E-07135480   0.874E-04
   3 F= -.19227618E+04 E0= -.19227618E+04  d E =-.217799E-01  mag=     0.0000
 curvature:  -0.31 expect dE=-0.356E-02 dE for cont linesearch -0.293E-08
 trial: gam= 0.16363 g(F)=  0.113E-01 g(S)=  0.000E+00 ort =-0.254E-04 (trialstep = 0.926E+00)
 search vector abs. value=  0.132E-01
 bond charge predicted
       N       E                     dE             d eps       ncg     rms          rms(c)
DAV:   1    -0.192276458423E+04   -0.27757E-02   -0.17747E+00172360   0.170E+00    0.190E-01
DAV:   2    -0.192276969824E+04   -0.51140E-02   -0.59724E-02175710   0.322E-01    0.133E-01
DAV:   3    -0.192276937161E+04    0.32663E-03   -0.16590E-03183970   0.710E-02    0.945E-02
DAV:   4    -0.192276911467E+04    0.25694E-03   -0.47842E-04180910   0.464E-02    0.622E-02
DAV:   5    -0.192276899713E+04    0.11754E-03   -0.65866E-04176800   0.441E-02    0.189E-02
DAV:   6    -0.192276901227E+04   -0.15138E-04   -0.23210E-04181380   0.194E-02    0.205E-02
DAV:   7    -0.192276900990E+04    0.23649E-05   -0.15220E-05206220   0.525E-03    0.167E-02
DAV:   8    -0.192276900314E+04    0.67633E-05   -0.17606E-05185150   0.542E-03    0.677E-03
DAV:   9    -0.192276899955E+04    0.35849E-05   -0.77464E-06178370   0.569E-03    0.474E-03
DAV:  10    -0.192276899893E+04    0.62153E-06   -0.56185E-06174180   0.400E-03    0.283E-03
DAV:  11    -0.192276899914E+04   -0.21353E-06   -0.31097E-06163280   0.220E-03    0.306E-03
DAV:  12    -0.192276899897E+04    0.17002E-06   -0.48737E-07149210   0.131E-03    0.203E-03
DAV:  13    -0.192276899897E+04    0.00000E+00   -0.75363E-07152870   0.119E-03
   4 F= -.19227690E+04 E0= -.19227690E+04  d E =-.719048E-02  mag=     0.0000
 trial-energy change:   -0.007190  1 .order   -0.007205   -0.010478   -0.003931
 step:   1.4816(harm=  1.4816)  dis= 0.00568  next Energy= -1922.770193 (dE=-0.838E-02)
 bond charge predicted
       N       E                     dE             d eps       ncg     rms          rms(c)
DAV:   1    -0.192276862207E+04    0.37691E-03   -0.63985E-01172410   0.102E+00    0.114E-01
DAV:   2    -0.192277042877E+04   -0.18067E-02   -0.21147E-02175470   0.193E-01    0.799E-02
DAV:   3    -0.192277030791E+04    0.12085E-03   -0.58185E-04184410   0.425E-02    0.567E-02
DAV:   4    -0.192277021366E+04    0.94253E-04   -0.17325E-04181250   0.280E-02    0.373E-02
DAV:   5    -0.192277017061E+04    0.43055E-04   -0.24050E-04177230   0.266E-02    0.114E-02
DAV:   6    -0.192277017616E+04   -0.55535E-05   -0.84419E-05181820   0.117E-02    0.124E-02
DAV:   7    -0.192277017536E+04    0.80472E-06   -0.53037E-06204430   0.307E-03    0.103E-02
DAV:   8    -0.192277017280E+04    0.25517E-05   -0.68895E-06184380   0.341E-03    0.420E-03
DAV:   9    -0.192277017121E+04    0.15971E-05   -0.33106E-06175560   0.363E-03    0.306E-03
DAV:  10    -0.192277017095E+04    0.25672E-06   -0.22209E-06169150   0.244E-03    0.174E-03
DAV:  11    -0.192277017104E+04   -0.92579E-07   -0.10395E-06159640   0.134E-03    0.189E-03
DAV:  12    -0.192277017098E+04    0.60711E-07   -0.13982E-07 91400   0.854E-04
   5 F= -.19227702E+04 E0= -.19227702E+04  d E =-.836248E-02  mag=     0.0000
 curvature:  -0.86 expect dE=-0.834E-02 dE for cont linesearch -0.312E-07
 trial: gam= 0.85181 g(F)=  0.967E-02 g(S)=  0.000E+00 ort = 0.218E-04 (trialstep = 0.709E+00)
 search vector abs. value=  0.193E-01
 bond charge predicted
       N       E                     dE             d eps       ncg     rms          rms(c)
DAV:   1    -0.192277450427E+04   -0.43332E-02   -0.34540E-01207100   0.922E-01    0.121E-01
DAV:   2    -0.192277646211E+04   -0.19578E-02   -0.22950E-02160270   0.166E-01    0.706E-02
DAV:   3    -0.192277646307E+04   -0.96651E-06   -0.12749E-03179310   0.558E-02    0.509E-02
DAV:   4    -0.192277642447E+04    0.38608E-04   -0.12459E-04175600   0.229E-02    0.344E-02
DAV:   5    -0.192277640547E+04    0.18999E-04   -0.24797E-04175990   0.208E-02    0.196E-02
DAV:   6    -0.192277640234E+04    0.31310E-05   -0.35272E-05188630   0.985E-03    0.156E-02
DAV:   7    -0.192277639914E+04    0.32006E-05   -0.31506E-05178270   0.805E-03    0.503E-03
DAV:   8    -0.192277639984E+04   -0.70740E-06   -0.63649E-06205240   0.394E-03    0.577E-03
DAV:   9    -0.192277639946E+04    0.38245E-06   -0.14897E-06193790   0.205E-03    0.355E-03
DAV:  10    -0.192277639935E+04    0.10920E-06   -0.12145E-06173940   0.155E-03    0.139E-03
DAV:  11    -0.192277639935E+04   -0.36380E-09   -0.19336E-07105900   0.754E-04
   6 F= -.19227764E+04 E0= -.19227764E+04  d E =-.622837E-02  mag=     0.0000
 ZBRENT: can't locate minimum, use default step
 trial-energy change:   -0.006228  1 .order   -0.006232   -0.006869   -0.005595
 step:   2.8359(harm=  3.8224)  dis= 0.01959  next Energy= -1922.788688 (dE=-0.185E-01)
 bond charge predicted
       N       E                     dE             d eps       ncg     rms          rms(c)
DAV:   1    -0.192277012032E+04    0.62790E-02   -0.31042E+00206470   0.277E+00    0.361E-01
DAV:   2    -0.192278782264E+04   -0.17702E-01   -0.20775E-01159700   0.498E-01    0.212E-01
DAV:   3    -0.192278786021E+04   -0.37572E-04   -0.11817E-02179200   0.169E-01    0.153E-01
DAV:   4    -0.192278750252E+04    0.35770E-03   -0.11600E-03174700   0.692E-02    0.103E-01
DAV:   5    -0.192278731983E+04    0.18268E-03   -0.22324E-03176750   0.626E-02    0.586E-02
DAV:   6    -0.192278729070E+04    0.29128E-04   -0.32291E-04189040   0.295E-02    0.465E-02
DAV:   7    -0.192278726093E+04    0.29771E-04   -0.27414E-04177500   0.236E-02    0.150E-02
DAV:   8    -0.192278726586E+04   -0.49279E-05   -0.57783E-05211350   0.121E-02    0.177E-02
DAV:   9    -0.192278726150E+04    0.43598E-05   -0.15095E-05205420   0.637E-03    0.106E-02
DAV:  10    -0.192278726023E+04    0.12676E-05   -0.11623E-05181790   0.459E-03    0.430E-03
DAV:  11    -0.192278726015E+04    0.87282E-07   -0.17582E-06173300   0.216E-03    0.293E-03
DAV:  12    -0.192278726008E+04    0.63475E-07   -0.64868E-07154040   0.135E-03
   7 F= -.19227873E+04 E0= -.19227873E+04  d E =-.170891E-01  mag=     0.0000
 curvature:  -3.42 expect dE=-0.156E+00 dE for cont linesearch -0.978E-03
 ZBRENT: extrapolating
 opt :   3.7368  next Energy= -1922.788318 (dE=-0.181E-01)
 bond charge predicted
       N       E                     dE             d eps       ncg     rms          rms(c)
DAV:   1    -0.192278517571E+04    0.20844E-02   -0.55622E-01206550   0.117E+00    0.153E-01
DAV:   2    -0.192278835184E+04   -0.31761E-02   -0.37269E-02160610   0.211E-01    0.899E-02
DAV:   3    -0.192278835300E+04   -0.11670E-05   -0.20666E-03179250   0.709E-02    0.644E-02
DAV:   4    -0.192278828896E+04    0.64045E-04   -0.20338E-04173240   0.292E-02    0.433E-02
DAV:   5    -0.192278825660E+04    0.32356E-04   -0.39323E-04171120   0.263E-02    0.242E-02
DAV:   6    -0.192278825216E+04    0.44444E-05   -0.58380E-05191770   0.124E-02    0.192E-02
DAV:   7    -0.192278824736E+04    0.47963E-05   -0.47056E-05182250   0.976E-03    0.636E-03
DAV:   8    -0.192278824843E+04   -0.10667E-05   -0.91807E-06216380   0.494E-03    0.718E-03
DAV:   9    -0.192278824778E+04    0.64596E-06   -0.26537E-06203710   0.269E-03    0.428E-03
DAV:  10    -0.192278824762E+04    0.16674E-06   -0.19893E-06178150   0.189E-03    0.185E-03
DAV:  11    -0.192278824761E+04    0.11642E-07   -0.24232E-07117930   0.876E-04
   8 F= -.19227882E+04 E0= -.19227882E+04  d E =-.180766E-01  mag=     0.0000
 curvature:  -3.70 expect dE=-0.289E+00 dE for cont linesearch -0.148E-05
 trial: gam= 8.07912 g(F)=  0.783E-01 g(S)=  0.000E+00 ort =-0.880E-04 (trialstep = 0.190E-01)
 search vector abs. value=  0.133E+01
 bond charge predicted
       N       E                     dE             d eps       ncg     rms          rms(c)
DAV:   1    -0.192278961400E+04   -0.13664E-02   -0.16055E-02206590   0.199E-01    0.253E-02
DAV:   2    -0.192278972050E+04   -0.10650E-03   -0.11537E-03163600   0.333E-02    0.126E-02
DAV:   3    -0.192278972159E+04   -0.10882E-05   -0.47251E-05188370   0.885E-03    0.915E-03
DAV:   4    -0.192278972009E+04    0.15040E-05   -0.53608E-06189830   0.443E-03    0.506E-03
DAV:   5    -0.192278971975E+04    0.33408E-06   -0.48990E-06173610   0.340E-03    0.316E-03
DAV:   6    -0.192278971968E+04    0.73327E-07   -0.10034E-06170070   0.171E-03    0.245E-03
DAV:   7    -0.192278971966E+04    0.14916E-07   -0.10614E-06151210   0.160E-03    0.109E-03
DAV:   8    -0.192278971963E+04    0.30908E-07   -0.18079E-07 98590   0.669E-04
   9 F= -.19227897E+04 E0= -.19227897E+04  d E =-.147203E-02  mag=     0.0000
 ZBRENT: can't locate minimum, use default step
 trial-energy change:   -0.001472  1 .order   -0.001474   -0.001472   -0.001475
 step:   0.0759(harm=  0.0759)  dis= 0.00449  next Energy= -1922.794164 (dE=-0.592E-02)
 bond charge predicted
       N       E                     dE             d eps       ncg     rms          rms(c)
DAV:   1    -0.192279319001E+04   -0.34703E-02   -0.14441E-01206230   0.598E-01    0.754E-02
DAV:   2    -0.192279413972E+04   -0.94971E-03   -0.10301E-02163350   0.995E-02    0.376E-02
DAV:   3    -0.192279414908E+04   -0.93538E-05   -0.42158E-04188000   0.264E-02    0.272E-02
DAV:   4    -0.192279413755E+04    0.11529E-04   -0.47314E-05188690   0.133E-02    0.151E-02
DAV:   5    -0.192279413538E+04    0.21661E-05   -0.43816E-05174620   0.102E-02    0.930E-03
DAV:   6    -0.192279413484E+04    0.54366E-06   -0.91989E-06175690   0.510E-03    0.725E-03
DAV:   7    -0.192279413447E+04    0.36568E-06   -0.89089E-06188130   0.457E-03    0.318E-03
DAV:   8    -0.192279413445E+04    0.27227E-07   -0.16013E-06169240   0.178E-03    0.237E-03
DAV:   9    -0.192279413431E+04    0.13169E-06   -0.50771E-07132590   0.111E-03    0.755E-04
DAV:  10    -0.192279413433E+04   -0.21304E-07   -0.13666E-07 89570   0.655E-04
  10 F= -.19227941E+04 E0= -.19227941E+04  d E =-.588673E-02  mag=     0.0000
 curvature:  -0.98 expect dE=-0.796E-01 dE for cont linesearch -0.449E-02
 ZBRENT: increasing intervall
 opt :   0.1898  next Energy= -1922.803087 (dE=-0.148E-01)
 bond charge predicted
       N       E                     dE             d eps       ncg     rms          rms(c)
DAV:   1    -0.192279929374E+04   -0.51594E-02   -0.57731E-01206200   0.120E+00    0.151E-01
DAV:   2    -0.192280308484E+04   -0.37911E-02   -0.41191E-02163370   0.199E-01    0.753E-02
DAV:   3    -0.192280312248E+04   -0.37643E-04   -0.16948E-03187830   0.529E-02    0.544E-02
DAV:   4    -0.192280307855E+04    0.43936E-04   -0.19213E-04188290   0.266E-02    0.302E-02
DAV:   5    -0.192280307083E+04    0.77182E-05   -0.17425E-04172840   0.204E-02    0.186E-02
DAV:   6    -0.192280306866E+04    0.21655E-05   -0.36640E-05175620   0.102E-02    0.145E-02
DAV:   7    -0.192280306703E+04    0.16327E-05   -0.35852E-05189120   0.918E-03    0.641E-03
DAV:   8    -0.192280306708E+04   -0.44907E-07   -0.64531E-06174290   0.356E-03    0.473E-03
DAV:   9    -0.192280306668E+04    0.39497E-06   -0.22325E-06171680   0.223E-03    0.149E-03
DAV:  10    -0.192280306673E+04   -0.53755E-07   -0.54015E-07144640   0.113E-03
  11 F= -.19228031E+04 E0= -.19228031E+04  d E =-.148191E-01  mag=     0.0000
 curvature:  -1.95 expect dE=-0.168E+00 dE for cont linesearch -0.909E-02
 ZBRENT: increasing intervall
 opt :   0.4175  next Energy= -1922.821152 (dE=-0.329E-01)
 bond charge predicted
       N       E                     dE             d eps       ncg     rms          rms(c)
DAV:   1    -0.192280582375E+04   -0.27571E-02   -0.23053E+00206300   0.239E+00    0.301E-01
DAV:   2    -0.192282108710E+04   -0.15263E-01   -0.16578E-01163750   0.398E-01    0.151E-01
DAV:   3    -0.192282124366E+04   -0.15656E-03   -0.68551E-03187440   0.106E-01    0.108E-01
DAV:   4    -0.192282107576E+04    0.16790E-03   -0.76980E-04184210   0.531E-02    0.601E-02
DAV:   5    -0.192282104805E+04    0.27707E-04   -0.67946E-04172340   0.404E-02    0.366E-02
DAV:   6    -0.192282103986E+04    0.81936E-05   -0.14393E-04175550   0.202E-02    0.283E-02
DAV:   7    -0.192282103354E+04    0.63132E-05   -0.13968E-04189100   0.182E-02    0.129E-02
DAV:   8    -0.192282103379E+04   -0.24374E-06   -0.24981E-05175940   0.702E-03    0.923E-03
DAV:   9    -0.192282103257E+04    0.12209E-05   -0.93192E-06185390   0.446E-03    0.297E-03
DAV:  10    -0.192282103272E+04   -0.15672E-06   -0.20790E-06169420   0.223E-03    0.266E-03
DAV:  11    -0.192282103255E+04    0.17644E-06   -0.23510E-07115960   0.115E-03    0.154E-03
DAV:  12    -0.192282103248E+04    0.71261E-07   -0.48329E-07135120   0.106E-03
  12 F= -.19228210E+04 E0= -.19228210E+04  d E =-.327849E-01  mag=    -0.0000
 curvature:  -3.89 expect dE=-0.374E+00 dE for cont linesearch -0.180E-01
 ZBRENT: increasing intervall
 opt :   0.8731  next Energy= -1922.856759 (dE=-0.685E-01)
 bond charge predicted
       N       E                     dE             d eps       ncg     rms          rms(c)
DAV:   1    -0.192279332116E+04    0.27711E-01   -0.91929E+00206530   0.477E+00    0.598E-01
DAV:   2    -0.192285547660E+04   -0.62155E-01   -0.67351E-01164260   0.799E-01    0.303E-01
DAV:   3    -0.192285621880E+04   -0.74220E-03   -0.28620E-02187300   0.212E-01    0.215E-01
DAV:   4    -0.192285558374E+04    0.63506E-03   -0.31243E-03181780   0.106E-01    0.119E-01
DAV:   5    -0.192285548137E+04    0.10237E-03   -0.25925E-03171570   0.793E-02    0.705E-02
DAV:   6    -0.192285545247E+04    0.28900E-04   -0.55372E-04176030   0.399E-02    0.538E-02
DAV:   7    -0.192285543438E+04    0.18096E-04   -0.55104E-04191840   0.364E-02    0.273E-02
DAV:   8    -0.192285543239E+04    0.19892E-05   -0.10027E-04174930   0.144E-02    0.176E-02
DAV:   9    -0.192285542924E+04    0.31487E-05   -0.44912E-05184260   0.916E-03    0.658E-03
DAV:  10    -0.192285542934E+04   -0.97891E-07   -0.64050E-06164470   0.438E-03    0.503E-03
DAV:  11    -0.192285542884E+04    0.49193E-06   -0.14061E-06182460   0.226E-03    0.240E-03
DAV:  12    -0.192285542875E+04    0.96305E-07   -0.10417E-06174670   0.142E-03    0.843E-04
DAV:  13    -0.192285542870E+04    0.45446E-07   -0.11329E-07100360   0.764E-04
  13 F= -.19228554E+04 E0= -.19228554E+04  d E =-.671811E-01  mag=    -0.0000
 curvature:  -7.71 expect dE=-0.943E+00 dE for cont linesearch -0.291E-01
 ZBRENT: increasing intervall
 opt :   1.7841  next Energy= -1922.913009 (dE=-0.125E+00)
 bond charge predicted
       N       E                     dE             d eps       ncg     rms          rms(c)
DAV:   1    -0.192260423496E+04    0.25119E+00   -0.36194E+01206260   0.955E+00    0.120E+00
DAV:   2    -0.192289787676E+04   -0.29364E+00   -0.31513E+00167140   0.164E+00    0.620E-01
DAV:   3    -0.192290189010E+04   -0.40133E-02   -0.12886E-01188860   0.433E-01    0.425E-01
DAV:   4    -0.192289975635E+04    0.21337E-02   -0.15193E-02180150   0.220E-01    0.237E-01
DAV:   5    -0.192289930200E+04    0.45436E-03   -0.91028E-03176510   0.154E-01    0.129E-01
DAV:   6    -0.192289922146E+04    0.80542E-04   -0.19684E-03178340   0.756E-02    0.927E-02
DAV:   7    -0.192289922126E+04    0.19337E-06   -0.18607E-03202020   0.678E-02    0.561E-02
DAV:   8    -0.192289919050E+04    0.30762E-04   -0.36278E-04178660   0.289E-02    0.285E-02
DAV:   9    -0.192289919078E+04   -0.27605E-06   -0.18850E-04184520   0.171E-02    0.172E-02
DAV:  10    -0.192289918535E+04    0.54299E-05   -0.18392E-05194410   0.894E-03    0.596E-03
DAV:  11    -0.192289918559E+04   -0.24674E-06   -0.11571E-05179210   0.436E-03    0.273E-03
DAV:  12    -0.192289918565E+04   -0.52358E-07   -0.12220E-06190770   0.148E-03    0.262E-03
DAV:  13    -0.192289918555E+04    0.96799E-07   -0.32510E-07139650   0.106E-03
  14 F= -.19228992E+04 E0= -.19228992E+04  d E =-.110938E+00  mag=    -0.0000
 curvature: -15.28 expect dE=-0.302E+01 dE for cont linesearch -0.265E-02
 trial: gam= 1.09370 g(F)=  0.198E+00 g(S)=  0.000E+00 ort = 0.152E-01 (trialstep = 0.272E+00)
 search vector abs. value=  0.183E+01
 bond charge predicted
       N       E                     dE             d eps       ncg     rms          rms(c)
DAV:   1    -0.192291330617E+04   -0.14121E-01   -0.63141E+00203680   0.375E+00    0.507E-01
DAV:   2    -0.192294660542E+04   -0.33299E-01   -0.38619E-01158770   0.714E-01    0.342E-01
DAV:   3    -0.192294608562E+04    0.51980E-03   -0.22590E-02173350   0.261E-01    0.202E-01
DAV:   4    -0.192294528047E+04    0.80515E-03   -0.24813E-03177850   0.107E-01    0.142E-01
DAV:   5    -0.192294470263E+04    0.57783E-03   -0.36155E-03184700   0.970E-02    0.588E-02
DAV:   6    -0.192294471762E+04   -0.14985E-04   -0.10421E-03192060   0.446E-02    0.552E-02
DAV:   7    -0.192294468238E+04    0.35237E-04   -0.30538E-04186910   0.239E-02    0.273E-02
DAV:   8    -0.192294466216E+04    0.20225E-04   -0.45637E-05185230   0.122E-02    0.117E-02
DAV:   9    -0.192294465396E+04    0.81995E-05   -0.15364E-05182190   0.966E-03    0.450E-03
DAV:  10    -0.192294465398E+04   -0.23691E-07   -0.13351E-05189800   0.543E-03    0.545E-03
DAV:  11    -0.192294465358E+04    0.40350E-06   -0.16738E-06165460   0.220E-03    0.385E-03
DAV:  12    -0.192294465333E+04    0.25250E-06   -0.20848E-06170690   0.230E-03    0.115E-03
DAV:  13    -0.192294465322E+04    0.10262E-06   -0.37702E-07136230   0.145E-03    0.609E-04
DAV:  14    -0.192294465326E+04   -0.33178E-07   -0.13798E-07 93800   0.648E-04
  15 F= -.19229447E+04 E0= -.19229447E+04  d E =-.454677E-01  mag=    -0.0000
 trial-energy change:   -0.045468  1 .order   -0.045258   -0.058215   -0.032302
 step:   0.5787(harm=  0.6103)  dis= 0.03857  next Energy= -1922.963204 (dE=-0.640E-01)
 bond charge predicted
       N       E                     dE             d eps       ncg     rms          rms(c)
DAV:   1    -0.192292269813E+04    0.21955E-01   -0.80456E+00203960   0.424E+00    0.572E-01
DAV:   2    -0.192296579144E+04   -0.43093E-01   -0.49806E-01159080   0.807E-01    0.388E-01
DAV:   3    -0.192296512843E+04    0.66302E-03   -0.28772E-02173390   0.294E-01    0.229E-01
DAV:   4    -0.192296411515E+04    0.10133E-02   -0.31758E-03177630   0.121E-01    0.160E-01
DAV:   5    -0.192296340289E+04    0.71227E-03   -0.45226E-03181100   0.108E-01    0.656E-02
DAV:   6    -0.192296342045E+04   -0.17556E-04   -0.12884E-03192400   0.499E-02    0.614E-02
DAV:   7    -0.192296337694E+04    0.43504E-04   -0.38635E-04184300   0.270E-02    0.303E-02
DAV:   8    -0.192296335306E+04    0.23885E-04   -0.56313E-05185130   0.135E-02    0.131E-02
DAV:   9    -0.192296334337E+04    0.96917E-05   -0.19631E-05180140   0.107E-02    0.521E-03
DAV:  10    -0.192296334333E+04    0.35638E-07   -0.15784E-05189770   0.591E-03    0.620E-03
DAV:  11    -0.192296334271E+04    0.62355E-06   -0.20706E-06172630   0.259E-03    0.380E-03
DAV:  12    -0.192296334253E+04    0.17611E-06   -0.26550E-06181150   0.243E-03    0.151E-03
DAV:  13    -0.192296334240E+04    0.12733E-06   -0.45399E-07145330   0.163E-03    0.647E-04
DAV:  14    -0.192296334246E+04   -0.53056E-07   -0.16361E-07 96510   0.648E-04
  16 F= -.19229633E+04 E0= -.19229633E+04  d E =-.641569E-01  mag=    -0.0000
 curvature:  -2.58 expect dE=-0.157E+00 dE for cont linesearch -0.246E-05
 trial: gam= 0.12033 g(F)=  0.609E-01 g(S)=  0.000E+00 ort = 0.132E-02 (trialstep = 0.333E+00)
 search vector abs. value=  0.877E-01
 bond charge predicted
       N       E                     dE             d eps       ncg     rms          rms(c)
DAV:   1    -0.192297620296E+04   -0.12861E-01   -0.16841E+00170150   0.167E+00    0.194E-01
DAV:   2    -0.192298115984E+04   -0.49569E-02   -0.57735E-02165080   0.328E-01    0.122E-01
DAV:   3    -0.192298096600E+04    0.19384E-03   -0.22045E-03183550   0.796E-02    0.865E-02
DAV:   4    -0.192298080179E+04    0.16421E-03   -0.32499E-04170960   0.380E-02    0.599E-02
DAV:   5    -0.192298070825E+04    0.93544E-04   -0.61013E-04170180   0.372E-02    0.194E-02
DAV:   6    -0.192298071706E+04   -0.88134E-05   -0.16068E-04181950   0.167E-02    0.183E-02
DAV:   7    -0.192298071348E+04    0.35833E-05   -0.14956E-05206570   0.574E-03    0.114E-02
DAV:   8    -0.192298071187E+04    0.16079E-05   -0.12473E-05196430   0.541E-03    0.374E-03
DAV:   9    -0.192298071202E+04   -0.14433E-06   -0.34991E-06166960   0.353E-03    0.272E-03
DAV:  10    -0.192298071210E+04   -0.81462E-07   -0.16957E-06199270   0.243E-03    0.159E-03
DAV:  11    -0.192298071202E+04    0.83091E-07   -0.72844E-07159270   0.115E-03
  17 F= -.19229807E+04 E0= -.19229807E+04  d E =-.173696E-01  mag=     0.0000
 trial-energy change:   -0.017370  1 .order   -0.017307   -0.020344   -0.014271
 step:   0.9943(harm=  1.1157)  dis= 0.01019  next Energy= -1922.995364 (dE=-0.320E-01)
 bond charge predicted
       N       E                     dE             d eps       ncg     rms          rms(c)
DAV:   1    -0.192297941453E+04    0.12976E-02   -0.66375E+00169750   0.332E+00    0.385E-01
DAV:   2    -0.192299892016E+04   -0.19506E-01   -0.22762E-01164790   0.651E-01    0.243E-01
DAV:   3    -0.192299814913E+04    0.77103E-03   -0.87477E-03183050   0.159E-01    0.172E-01
DAV:   4    -0.192299749687E+04    0.65226E-03   -0.12887E-03171170   0.756E-02    0.120E-01
DAV:   5    -0.192299711540E+04    0.38147E-03   -0.24404E-03170020   0.742E-02    0.384E-02
DAV:   6    -0.192299715076E+04   -0.35360E-04   -0.64283E-04181720   0.332E-02    0.365E-02
DAV:   7    -0.192299713682E+04    0.13944E-04   -0.57341E-05208050   0.112E-02    0.233E-02
DAV:   8    -0.192299712876E+04    0.80603E-05   -0.51594E-05196100   0.111E-02    0.754E-03
DAV:   9    -0.192299712854E+04    0.21524E-06   -0.15429E-05167520   0.722E-03    0.559E-03
DAV:  10    -0.192299712846E+04    0.78304E-07   -0.68807E-06207460   0.489E-03    0.321E-03
DAV:  11    -0.192299712827E+04    0.18944E-06   -0.31179E-06169470   0.234E-03    0.275E-03
DAV:  12    -0.192299712816E+04    0.11169E-06   -0.47701E-07149470   0.107E-03    0.140E-03
DAV:  13    -0.192299712811E+04    0.48618E-07   -0.31665E-07117740   0.662E-04
  18 F= -.19229971E+04 E0= -.19229971E+04  d E =-.337857E-01  mag=     0.0000
 curvature:  -0.78 expect dE=-0.128E-01 dE for cont linesearch -0.385E-03
 ZBRENT: extrapolating
 opt :   1.1142  next Energy= -1922.997522 (dE=-0.342E-01)
 bond charge predicted
       N       E                     dE             d eps       ncg     rms          rms(c)
DAV:   1    -0.192299692761E+04    0.20056E-03   -0.21799E-01170320   0.601E-01    0.701E-02
DAV:   2    -0.192299757260E+04   -0.64499E-03   -0.74720E-03164950   0.118E-01    0.438E-02
DAV:   3    -0.192299754794E+04    0.24654E-04   -0.28822E-04182890   0.288E-02    0.311E-02
DAV:   4    -0.192299752765E+04    0.20295E-04   -0.42275E-05171150   0.137E-02    0.215E-02
DAV:   5    -0.192299751626E+04    0.11382E-04   -0.79476E-05168680   0.134E-02    0.701E-03
DAV:   6    -0.192299751745E+04   -0.11863E-05   -0.20925E-05181580   0.601E-03    0.664E-03
DAV:   7    -0.192299751701E+04    0.44049E-06   -0.19659E-06203550   0.208E-03    0.413E-03
DAV:   8    -0.192299751693E+04    0.84983E-07   -0.16235E-06187020   0.195E-03    0.135E-03
DAV:   9    -0.192299751704E+04   -0.11857E-06   -0.44435E-07148070   0.128E-03    0.968E-04
DAV:  10    -0.192299751710E+04   -0.55472E-07   -0.16562E-07110860   0.909E-04
  19 F= -.19229975E+04 E0= -.19229975E+04  d E =-.341746E-01  mag=     0.0000
 curvature:  -0.80 expect dE=-0.156E-01 dE for cont linesearch -0.622E-09
 trial: gam= 0.31185 g(F)=  0.195E-01 g(S)=  0.000E+00 ort =-0.826E-05 (trialstep = 0.489E+00)
 search vector abs. value=  0.280E-01
 bond charge predicted
       N       E                     dE             d eps       ncg     rms          rms(c)
DAV:   1    -0.192300249690E+04   -0.49799E-02   -0.10139E+00168160   0.129E+00    0.145E-01
DAV:   2    -0.192300519227E+04   -0.26954E-02   -0.33364E-02174690   0.254E-01    0.932E-02
DAV:   3    -0.192300499382E+04    0.19844E-03   -0.11151E-03209880   0.553E-02    0.714E-02
DAV:   4    -0.192300475374E+04    0.24008E-03   -0.31648E-04203630   0.366E-02    0.371E-02
DAV:   5    -0.192300466083E+04    0.92910E-04   -0.25429E-04212260   0.400E-02    0.223E-02
DAV:   6    -0.192300466934E+04   -0.85040E-05   -0.21275E-04186700   0.190E-02    0.190E-02
DAV:   7    -0.192300466356E+04    0.57749E-05   -0.36968E-05218170   0.910E-03    0.115E-02
DAV:   8    -0.192300465747E+04    0.60927E-05   -0.77896E-06203580   0.750E-03    0.576E-03
DAV:   9    -0.192300465593E+04    0.15383E-05   -0.54460E-06197660   0.419E-03    0.298E-03
DAV:  10    -0.192300465582E+04    0.11193E-06   -0.21267E-06184130   0.198E-03    0.247E-03
DAV:  11    -0.192300465576E+04    0.55676E-07   -0.18409E-07106290   0.792E-04
  20 F= -.19230047E+04 E0= -.19230047E+04  d E =-.713866E-02  mag=    -0.0000
 trial-energy change:   -0.007139  1 .order   -0.007143   -0.009545   -0.004741
 step:   0.9721(harm=  0.9721)  dis= 0.00497  next Energy= -1923.006999 (dE=-0.948E-02)
 bond charge predicted
       N       E                     dE             d eps       ncg     rms          rms(c)
DAV:   1    -0.192300491325E+04   -0.25743E-03   -0.98686E-01168190   0.127E+00    0.143E-01
DAV:   2    -0.192300753799E+04   -0.26247E-02   -0.32469E-02174570   0.251E-01    0.919E-02
DAV:   3    -0.192300734509E+04    0.19290E-03   -0.10844E-03209860   0.546E-02    0.703E-02
DAV:   4    -0.192300711139E+04    0.23370E-03   -0.30777E-04203680   0.362E-02    0.365E-02
DAV:   5    -0.192300702153E+04    0.89856E-04   -0.24699E-04212330   0.394E-02    0.219E-02
DAV:   6    -0.192300702986E+04   -0.83339E-05   -0.20663E-04186900   0.188E-02    0.187E-02
DAV:   7    -0.192300702425E+04    0.56119E-05   -0.35634E-05218020   0.895E-03    0.114E-02
DAV:   8    -0.192300701833E+04    0.59235E-05   -0.75677E-06203260   0.736E-03    0.568E-03
DAV:   9    -0.192300701682E+04    0.15033E-05   -0.52953E-06197250   0.414E-03    0.291E-03
DAV:  10    -0.192300701672E+04    0.10950E-06   -0.20767E-06184280   0.196E-03    0.241E-03
DAV:  11    -0.192300701666E+04    0.54482E-07   -0.17889E-07105560   0.780E-04
  21 F= -.19230070E+04 E0= -.19230070E+04  d E =-.949956E-02  mag=    -0.0000
 curvature:  -0.70 expect dE=-0.639E-02 dE for cont linesearch -0.630E-08
 trial: gam= 0.46929 g(F)=  0.915E-02 g(S)=  0.000E+00 ort =-0.159E-04 (trialstep = 0.586E+00)
 search vector abs. value=  0.153E-01
 bond charge predicted
       N       E                     dE             d eps       ncg     rms          rms(c)
DAV:   1    -0.192300938613E+04   -0.23694E-02   -0.59923E-01171500   0.100E+00    0.133E-01
DAV:   2    -0.192301120988E+04   -0.18238E-02   -0.22104E-02168260   0.203E-01    0.859E-02
DAV:   3    -0.192301114910E+04    0.60789E-04   -0.12138E-03179570   0.602E-02    0.564E-02
DAV:   4    -0.192301108114E+04    0.67954E-04   -0.14654E-04170100   0.266E-02    0.385E-02
DAV:   5    -0.192301103624E+04    0.44903E-04   -0.22951E-04170590   0.226E-02    0.139E-02
DAV:   6    -0.192301103792E+04   -0.16860E-05   -0.56732E-05196660   0.107E-02    0.125E-02
DAV:   7    -0.192301103658E+04    0.13427E-05   -0.16422E-05200890   0.572E-03    0.632E-03
DAV:   8    -0.192301103648E+04    0.97411E-07   -0.18343E-06191350   0.283E-03    0.362E-03
DAV:   9    -0.192301103655E+04   -0.60376E-07   -0.10604E-06178760   0.216E-03    0.252E-03
DAV:  10    -0.192301103655E+04   -0.69558E-08   -0.51398E-07152100   0.132E-03
  22 F= -.19230110E+04 E0= -.19230110E+04  d E =-.401989E-02  mag=     0.0000
 trial-energy change:   -0.004020  1 .order   -0.003999   -0.005356   -0.002641
 step:   1.1093(harm=  1.1560)  dis= 0.00457  next Energy= -1923.012232 (dE=-0.522E-02)
 bond charge predicted
       N       E                     dE             d eps       ncg     rms          rms(c)
DAV:   1    -0.192301097963E+04    0.56916E-04   -0.47843E-01171550   0.896E-01    0.119E-01
DAV:   2    -0.192301243495E+04   -0.14553E-02   -0.17647E-02168280   0.181E-01    0.767E-02
DAV:   3    -0.192301238692E+04    0.48024E-04   -0.97512E-04179940   0.539E-02    0.503E-02
DAV:   4    -0.192301233301E+04    0.53915E-04   -0.11731E-04170920   0.238E-02    0.344E-02
DAV:   5    -0.192301229745E+04    0.35554E-04   -0.18300E-04170990   0.203E-02    0.124E-02
DAV:   6    -0.192301229892E+04   -0.14657E-05   -0.45688E-05196680   0.960E-03    0.112E-02
DAV:   7    -0.192301229788E+04    0.10368E-05   -0.12946E-05201160   0.505E-03    0.572E-03
DAV:   8    -0.192301229783E+04    0.50350E-07   -0.14372E-06183270   0.254E-03    0.321E-03
DAV:   9    -0.192301229792E+04   -0.87224E-07   -0.90663E-07173370   0.198E-03
  23 F= -.19230123E+04 E0= -.19230123E+04  d E =-.528126E-02  mag=    -0.0000
 curvature:  -0.96 expect dE=-0.436E-02 dE for cont linesearch -0.866E-05
 trial: gam= 0.45216 g(F)=  0.454E-02 g(S)=  0.000E+00 ort = 0.371E-03 (trialstep = 0.691E+00)
 search vector abs. value=  0.800E-02
 bond charge predicted
       N       E                     dE             d eps       ncg     rms          rms(c)
DAV:   1    -0.192301283803E+04   -0.54019E-03   -0.55975E-01175310   0.974E-01    0.137E-01
DAV:   2    -0.192301460077E+04   -0.17627E-02   -0.21438E-02161270   0.214E-01    0.107E-01
DAV:   3    -0.192301450564E+04    0.95127E-04   -0.17559E-03168690   0.827E-02    0.538E-02
DAV:   4    -0.192301445283E+04    0.52813E-04   -0.20850E-04183540   0.278E-02    0.412E-02
DAV:   5    -0.192301439779E+04    0.55036E-04   -0.22879E-04184610   0.269E-02    0.135E-02
DAV:   6    -0.192301440145E+04   -0.36568E-05   -0.90520E-05178250   0.119E-02    0.149E-02
DAV:   7    -0.192301439895E+04    0.24998E-05   -0.12581E-05203830   0.500E-03    0.895E-03
DAV:   8    -0.192301439634E+04    0.26068E-05   -0.54816E-06188210   0.277E-03    0.321E-03
DAV:   9    -0.192301439489E+04    0.14477E-05   -0.81497E-07157900   0.226E-03    0.143E-03
DAV:  10    -0.192301439436E+04    0.52950E-06   -0.57165E-07155770   0.155E-03    0.126E-03
DAV:  11    -0.192301439433E+04    0.36292E-07   -0.49970E-07147990   0.139E-03
  24 F= -.19230144E+04 E0= -.19230144E+04  d E =-.209641E-02  mag=    -0.0000
 trial-energy change:   -0.002096  1 .order   -0.002124   -0.003250   -0.000998
 step:   1.0341(harm=  0.9964)  dis= 0.00344  next Energy= -1923.014639 (dE=-0.234E-02)
 bond charge predicted
       N       E                     dE             d eps       ncg     rms          rms(c)
DAV:   1    -0.192301422622E+04    0.16814E-03   -0.13848E-01175590   0.485E-01    0.679E-02
DAV:   2    -0.192301465867E+04   -0.43245E-03   -0.52999E-03161100   0.106E-01    0.531E-02
DAV:   3    -0.192301463487E+04    0.23805E-04   -0.43491E-04168840   0.412E-02    0.268E-02
DAV:   4    -0.192301462076E+04    0.14102E-04   -0.51427E-05184440   0.138E-02    0.206E-02
DAV:   5    -0.192301460492E+04    0.15842E-04   -0.57009E-05185640   0.136E-02    0.676E-03
DAV:   6    -0.192301460567E+04   -0.75105E-06   -0.23161E-05178020   0.599E-03    0.756E-03
DAV:   7    -0.192301460502E+04    0.65661E-06   -0.29103E-06202530   0.239E-03    0.477E-03
DAV:   8    -0.192301460402E+04    0.99724E-06   -0.15151E-06179660   0.146E-03    0.173E-03
DAV:   9    -0.192301460339E+04    0.63097E-06   -0.22579E-07121660   0.119E-03    0.749E-04
DAV:  10    -0.192301460315E+04    0.23399E-06   -0.17826E-07109960   0.834E-04    0.664E-04
DAV:  11    -0.192301460311E+04    0.42433E-07   -0.96787E-08 93560   0.818E-04
  25 F= -.19230146E+04 E0= -.19230146E+04  d E =-.230519E-02  mag=    -0.0000
 curvature:  -0.83 expect dE=-0.139E-02 dE for cont linesearch -0.361E-05
 trial: gam= 0.46149 g(F)=  0.167E-02 g(S)=  0.000E+00 ort =-0.186E-03 (trialstep = 0.759E+00)
 search vector abs. value=  0.320E-02
 bond charge predicted
       N       E                     dE             d eps       ncg     rms          rms(c)
DAV:   1    -0.192301476892E+04   -0.16576E-03   -0.17657E-01194840   0.583E-01    0.720E-02
DAV:   2    -0.192301548039E+04   -0.71147E-03   -0.79804E-03159340   0.103E-01    0.415E-02
DAV:   3    -0.192301546720E+04    0.13185E-04   -0.32992E-04188270   0.279E-02    0.289E-02
DAV:   4    -0.192301544817E+04    0.19033E-04   -0.46355E-05177360   0.134E-02    0.169E-02
DAV:   5    -0.192301544140E+04    0.67731E-05   -0.52341E-05169870   0.115E-02    0.807E-03
DAV:   6    -0.192301544153E+04   -0.13472E-06   -0.11059E-05177280   0.543E-03    0.706E-03
DAV:   7    -0.192301544112E+04    0.41185E-06   -0.74859E-06187510   0.443E-03    0.295E-03
DAV:   8    -0.192301544123E+04   -0.10864E-06   -0.19205E-06167080   0.181E-03    0.293E-03
DAV:   9    -0.192301544108E+04    0.15336E-06   -0.45553E-07127940   0.116E-03    0.127E-03
DAV:  10    -0.192301544114E+04   -0.67579E-07   -0.56348E-07142710   0.103E-03
  26 F= -.19230154E+04 E0= -.19230154E+04  d E =-.838032E-03  mag=    -0.0000
 trial-energy change:   -0.000838  1 .order   -0.000850   -0.001199   -0.000501
 step:   1.4404(harm=  1.3045)  dis= 0.00398  next Energy= -1923.015657 (dE=-0.105E-02)
 bond charge predicted
       N       E                     dE             d eps       ncg     rms          rms(c)
DAV:   1    -0.192301508014E+04    0.36094E-03   -0.14212E-01194780   0.523E-01    0.650E-02
DAV:   2    -0.192301565380E+04   -0.57366E-03   -0.64422E-03159530   0.922E-02    0.372E-02
DAV:   3    -0.192301564338E+04    0.10426E-04   -0.26801E-04188610   0.251E-02    0.260E-02
DAV:   4    -0.192301562807E+04    0.15312E-04   -0.37189E-05178100   0.120E-02    0.152E-02
DAV:   5    -0.192301562254E+04    0.55231E-05   -0.42896E-05170510   0.104E-02    0.740E-03
DAV:   6    -0.192301562265E+04   -0.10297E-06   -0.90261E-06177120   0.491E-03    0.650E-03
DAV:   7    -0.192301562230E+04    0.35133E-06   -0.62592E-06186660   0.406E-03    0.266E-03
DAV:   8    -0.192301562240E+04   -0.10169E-06   -0.16450E-06164250   0.167E-03    0.270E-03
DAV:   9    -0.192301562227E+04    0.13162E-06   -0.35862E-07118950   0.105E-03    0.120E-03
DAV:  10    -0.192301562232E+04   -0.59386E-07   -0.50554E-07139280   0.981E-04
  27 F= -.19230156E+04 E0= -.19230156E+04  d E =-.101921E-02  mag=     0.0000
 curvature:  -1.24 expect dE=-0.166E-02 dE for cont linesearch -0.107E-04
 trial: gam= 0.78715 g(F)=  0.134E-02 g(S)=  0.000E+00 ort =-0.166E-03 (trialstep = 0.895E+00)
 search vector abs. value=  0.306E-02
 bond charge predicted
       N       E                     dE             d eps       ncg     rms          rms(c)
DAV:   1    -0.192301531938E+04    0.30289E-03   -0.25210E-01204120   0.717E-01    0.818E-02
DAV:   2    -0.192301637681E+04   -0.10574E-02   -0.11760E-02156500   0.124E-01    0.486E-02
DAV:   3    -0.192301635763E+04    0.19181E-04   -0.44457E-04191740   0.305E-02    0.348E-02
DAV:   4    -0.192301632937E+04    0.28262E-04   -0.68600E-05182000   0.175E-02    0.204E-02
DAV:   5    -0.192301631991E+04    0.94585E-05   -0.79036E-05177690   0.143E-02    0.104E-02
DAV:   6    -0.192301632004E+04   -0.12475E-06   -0.18869E-05180630   0.631E-03    0.887E-03
DAV:   7    -0.192301631918E+04    0.85779E-06   -0.39864E-06196530   0.300E-03    0.443E-03
DAV:   8    -0.192301631880E+04    0.37528E-06   -0.21159E-06184110   0.221E-03    0.176E-03
DAV:   9    -0.192301631865E+04    0.14964E-06   -0.45436E-07150130   0.145E-03    0.138E-03
DAV:  10    -0.192301631859E+04    0.61336E-07   -0.44846E-07137220   0.122E-03
  28 F= -.19230163E+04 E0= -.19230163E+04  d E =-.696266E-03  mag=    -0.0000
 trial-energy change:   -0.000696  1 .order   -0.000689   -0.001081   -0.000298
 step:   1.2138(harm=  1.2363)  dis= 0.00370  next Energy= -1923.016372 (dE=-0.750E-03)
 bond charge predicted
       N       E                     dE             d eps       ncg     rms          rms(c)
DAV:   1    -0.192301625031E+04    0.68344E-04   -0.31860E-02204340   0.255E-01    0.291E-02
DAV:   2    -0.192301638393E+04   -0.13362E-03   -0.14869E-03157100   0.440E-02    0.173E-02
DAV:   3    -0.192301638179E+04    0.21369E-05   -0.56159E-05191060   0.109E-02    0.124E-02
DAV:   4    -0.192301637804E+04    0.37563E-05   -0.85552E-06181530   0.624E-03    0.730E-03
DAV:   5    -0.192301637691E+04    0.11270E-05   -0.10203E-05177600   0.515E-03    0.369E-03
DAV:   6    -0.192301637694E+04   -0.26790E-07   -0.25000E-06180790   0.227E-03    0.320E-03
DAV:   7    -0.192301637683E+04    0.10410E-06   -0.41573E-07140770   0.101E-03    0.177E-03
DAV:   8    -0.192301637673E+04    0.99157E-07   -0.44100E-07134630   0.100E-03
  29 F= -.19230164E+04 E0= -.19230164E+04  d E =-.754409E-03  mag=    -0.0000
 curvature:  -1.56 expect dE=-0.129E-02 dE for cont linesearch -0.267E-06
 trial: gam= 0.47154 g(F)=  0.828E-03 g(S)=  0.000E+00 ort = 0.229E-04 (trialstep = 0.959E+00)
 search vector abs. value=  0.153E-02
 bond charge predicted
       N       E                     dE             d eps       ncg     rms          rms(c)
DAV:   1    -0.192301625232E+04    0.12451E-03   -0.18435E-01196590   0.595E-01    0.643E-02
DAV:   2    -0.192301696134E+04   -0.70902E-03   -0.76616E-03155400   0.104E-01    0.370E-02
DAV:   3    -0.192301694806E+04    0.13281E-04   -0.27937E-04184700   0.262E-02    0.256E-02
DAV:   4    -0.192301693066E+04    0.17398E-04   -0.39453E-05177950   0.135E-02    0.157E-02
DAV:   5    -0.192301692363E+04    0.70324E-05   -0.47724E-05180710   0.119E-02    0.536E-03
DAV:   6    -0.192301692448E+04   -0.85452E-06   -0.13335E-05178350   0.510E-03    0.518E-03
DAV:   7    -0.192301692431E+04    0.16877E-06   -0.13056E-06188530   0.163E-03    0.311E-03
DAV:   8    -0.192301692436E+04   -0.49666E-07   -0.78676E-07166250   0.112E-03
  30 F= -.19230169E+04 E0= -.19230169E+04  d E =-.547630E-03  mag=    -0.0000
 trial-energy change:   -0.000548  1 .order   -0.000546   -0.000805   -0.000286
 step:   1.4699(harm=  1.4888)  dis= 0.00302  next Energy= -1923.017001 (dE=-0.624E-03)
 bond charge predicted
       N       E                     dE             d eps       ncg     rms          rms(c)
DAV:   1    -0.192301683948E+04    0.84831E-04   -0.52230E-02196720   0.317E-01    0.340E-02
DAV:   2    -0.192301704048E+04   -0.20100E-03   -0.21649E-03156460   0.554E-02    0.197E-02
DAV:   3    -0.192301703676E+04    0.37251E-05   -0.78957E-05184890   0.139E-02    0.136E-02
DAV:   4    -0.192301703193E+04    0.48254E-05   -0.11295E-05178500   0.720E-03    0.833E-03
DAV:   5    -0.192301702999E+04    0.19395E-05   -0.13223E-05180850   0.632E-03    0.275E-03
DAV:   6    -0.192301703027E+04   -0.28033E-06   -0.38181E-06178910   0.273E-03    0.263E-03
DAV:   7    -0.192301703026E+04    0.17259E-07   -0.35587E-07134550   0.895E-04
  31 F= -.19230170E+04 E0= -.19230170E+04  d E =-.653523E-03  mag=    -0.0000
 curvature:  -1.36 expect dE=-0.442E-03 dE for cont linesearch -0.254E-07
 trial: gam= 0.44625 g(F)=  0.326E-03 g(S)=  0.000E+00 ort = 0.536E-05 (trialstep = 0.106E+01)
 search vector abs. value=  0.635E-03
 bond charge predicted
       N       E                     dE             d eps       ncg     rms          rms(c)
DAV:   1    -0.192301701700E+04    0.13275E-04   -0.38512E-02206540   0.303E-01    0.362E-02
DAV:   2    -0.192301720159E+04   -0.18459E-03   -0.23715E-03160570   0.546E-02    0.221E-02
DAV:   3    -0.192301719608E+04    0.55071E-05   -0.14339E-04193870   0.169E-02    0.181E-02
DAV:   4    -0.192301718673E+04    0.93535E-05   -0.15131E-05188770   0.748E-03    0.108E-02
DAV:   5    -0.192301717957E+04    0.71551E-05   -0.26161E-05171640   0.854E-03    0.710E-03
DAV:   6    -0.192301717893E+04    0.64282E-06   -0.83551E-06198510   0.483E-03    0.572E-03
DAV:   7    -0.192301717852E+04    0.41073E-06   -0.63533E-06185690   0.348E-03    0.247E-03
DAV:   8    -0.192301717837E+04    0.15282E-06   -0.84262E-07175240   0.203E-03    0.165E-03
DAV:   9    -0.192301717823E+04    0.13396E-06   -0.28499E-07127580   0.101E-03    0.117E-03
DAV:  10    -0.192301717817E+04    0.64116E-07   -0.17569E-07 95790   0.708E-04
  32 F= -.19230172E+04 E0= -.19230172E+04  d E =-.147914E-03  mag=    -0.0000
 trial-energy change:   -0.000148  1 .order   -0.000144   -0.000349    0.000061
 step:   0.9116(harm=  0.9042)  dis= 0.00124  next Energy= -1923.017182 (dE=-0.152E-03)
 bond charge predicted
       N       E                     dE             d eps       ncg     rms          rms(c)
DAV:   1    -0.192301717876E+04   -0.52442E-06   -0.76584E-04206700   0.428E-02    0.511E-03
DAV:   2    -0.192301718211E+04   -0.33465E-05   -0.47088E-05160770   0.769E-03    0.317E-03
DAV:   3    -0.192301718178E+04    0.32713E-06   -0.28210E-06193520   0.240E-03    0.255E-03
DAV:   4    -0.192301718155E+04    0.22876E-06   -0.25782E-07126780   0.110E-03    0.154E-03
DAV:   5    -0.192301718131E+04    0.23859E-06   -0.72067E-07147920   0.132E-03    0.111E-03
DAV:   6    -0.192301718130E+04    0.15192E-07   -0.14454E-07102180   0.724E-04
  33 F= -.19230172E+04 E0= -.19230172E+04  d E =-.151039E-03  mag=    -0.0000
 curvature:  -0.87 expect dE=-0.153E-03 dE for cont linesearch -0.162E-07
 trial: gam= 0.55592 g(F)=  0.176E-03 g(S)=  0.000E+00 ort =-0.343E-05 (trialstep = 0.103E+01)
 search vector abs. value=  0.368E-03
 bond charge predicted
       N       E                     dE             d eps       ncg     rms          rms(c)
DAV:   1    -0.192301719596E+04   -0.14653E-04   -0.13707E-02217040   0.199E-01    0.206E-02
DAV:   2    -0.192301730057E+04   -0.10461E-03   -0.11360E-03152500   0.372E-02    0.169E-02
DAV:   3    -0.192301729996E+04    0.61616E-06   -0.66257E-05174130   0.137E-02    0.946E-03
DAV:   4    -0.192301729834E+04    0.16204E-05   -0.86076E-06219770   0.572E-03    0.669E-03
DAV:   5    -0.192301729738E+04    0.95993E-06   -0.43806E-06200720   0.411E-03    0.223E-03
DAV:   6    -0.192301729770E+04   -0.32529E-06   -0.23871E-06216510   0.270E-03    0.163E-03
DAV:   7    -0.192301729790E+04   -0.19446E-06   -0.64989E-07166280   0.123E-03    0.120E-03
DAV:   8    -0.192301729791E+04   -0.14377E-07   -0.58943E-08 93210   0.539E-04
  34 F= -.19230173E+04 E0= -.19230173E+04  d E =-.116614E-03  mag=    -0.0000
 trial-energy change:   -0.000117  1 .order   -0.000110   -0.000179   -0.000040
 step:   1.2467(harm=  1.3257)  dis= 0.00138  next Energy= -1923.017302 (dE=-0.121E-03)
 bond charge predicted
       N       E                     dE             d eps       ncg     rms          rms(c)
DAV:   1    -0.192301729880E+04   -0.90376E-06   -0.59602E-04217300   0.415E-02    0.442E-03
DAV:   2    -0.192301730378E+04   -0.49811E-05   -0.49570E-05154370   0.781E-03    0.345E-03
DAV:   3    -0.192301730381E+04   -0.27474E-07   -0.29995E-06170800   0.293E-03    0.186E-03
DAV:   4    -0.192301730384E+04   -0.29919E-07   -0.29587E-07138490   0.122E-03
  35 F= -.19230173E+04 E0= -.19230173E+04  d E =-.122542E-03  mag=    -0.0000
 curvature:  -1.30 expect dE=-0.125E-03 dE for cont linesearch -0.545E-06
 trial: gam= 0.44793 g(F)=  0.958E-04 g(S)=  0.000E+00 ort = 0.124E-04 (trialstep = 0.107E+01)
 search vector abs. value=  0.181E-03
 bond charge predicted
       N       E                     dE             d eps       ncg     rms          rms(c)
DAV:   1    -0.192301730941E+04   -0.56053E-05   -0.14811E-02206870   0.181E-01    0.232E-02
DAV:   2    -0.192301737319E+04   -0.63779E-04   -0.79091E-04150980   0.379E-02    0.204E-02
DAV:   3    -0.192301736973E+04    0.34658E-05   -0.59059E-05169170   0.152E-02    0.948E-03
DAV:   4    -0.192301736817E+04    0.15581E-05   -0.76801E-06192690   0.416E-03    0.703E-03
DAV:   5    -0.192301736643E+04    0.17377E-05   -0.31191E-06169660   0.279E-03    0.216E-03
DAV:   6    -0.192301736601E+04    0.42006E-06   -0.85937E-07182240   0.135E-03    0.115E-03
DAV:   7    -0.192301736581E+04    0.19924E-06   -0.24208E-07116100   0.862E-04    0.717E-04
DAV:   8    -0.192301736575E+04    0.63708E-07   -0.71464E-08 86050   0.540E-04
  36 F= -.19230174E+04 E0= -.19230174E+04  d E =-.619098E-04  mag=    -0.0000
 trial-energy change:   -0.000062  1 .order   -0.000067   -0.000109   -0.000025
 step:   1.3937(harm=  1.3937)  dis= 0.00099  next Energy= -1923.017374 (dE=-0.706E-04)
 bond charge predicted
       N       E                     dE             d eps       ncg     rms          rms(c)
DAV:   1    -0.192301736391E+04    0.18998E-05   -0.13064E-03207210   0.538E-02    0.700E-03
DAV:   2    -0.192301736886E+04   -0.49521E-05   -0.69687E-05151930   0.113E-02    0.604E-03
DAV:   3    -0.192301736857E+04    0.29814E-06   -0.51983E-06168860   0.453E-03    0.274E-03
DAV:   4    -0.192301736828E+04    0.28357E-06   -0.65544E-07161330   0.126E-03    0.202E-03
DAV:   5    -0.192301736793E+04    0.35578E-06   -0.28276E-07123070   0.893E-04    0.598E-04
DAV:   6    -0.192301736780E+04    0.12727E-06   -0.82523E-08 87990   0.488E-04    0.261E-04
DAV:   7    -0.192301736775E+04    0.51310E-07   -0.33251E-08 83400   0.367E-04
  37 F= -.19230174E+04 E0= -.19230174E+04  d E =-.639097E-04  mag=     0.0000
 curvature:  -1.24 expect dE=-0.823E-04 dE for cont linesearch -0.238E-08
 trial: gam= 0.76174 g(F)=  0.662E-04 g(S)=  0.000E+00 ort = 0.588E-06 (trialstep = 0.114E+01)
 search vector abs. value=  0.172E-03
 bond charge predicted
       N       E                     dE             d eps       ncg     rms          rms(c)
DAV:   1    -0.192301734034E+04    0.27457E-04   -0.15418E-02202360   0.182E-01    0.213E-02
DAV:   2    -0.192301741632E+04   -0.75980E-04   -0.83145E-04163600   0.307E-02    0.129E-02
DAV:   3    -0.192301741558E+04    0.73998E-06   -0.29972E-05185600   0.762E-03    0.882E-03
DAV:   4    -0.192301741403E+04    0.15494E-05   -0.51528E-06176900   0.437E-03    0.475E-03
DAV:   5    -0.192301741369E+04    0.34607E-06   -0.37876E-06171530   0.319E-03    0.269E-03
DAV:   6    -0.192301741368E+04    0.71595E-08   -0.72179E-07165650   0.137E-03
Detailed performance metrics for this job will be available at https://metrics.hpc.arizona.edu/#job_viewer?action=show&realm=SUPREMM&resource_id=73&local_job_id=1734893 by 8am on 2021/08/16.
