Ca2Al24O38                              
           1
    11.446102    0.000000    0.000000
    -5.723051    9.912615    0.000000
     0.000000    0.000000   22.382418
   Al   Ca   Mg   O    Ti
  64   8  16 152  16
Direct configuration=     1
   0.00000068  0.99999932  0.00030206
   0.99999932  0.00000068  0.50030206
   0.00000068  0.49999933  0.00030206
   0.99999932  0.50000067  0.50030206
   0.50000067  0.99999932  0.00030206
   0.49999933  0.00000068  0.50030206
   0.50000067  0.49999932  0.00030207
   0.49999933  0.50000067  0.50030207
   0.99999977  0.00000023  0.23893105
   0.00000023  0.99999977  0.73893103
   0.99999987  0.50000037  0.23893104
   0.00000013  0.49999963  0.73893102
   0.49999963  0.00000013  0.23893104
   0.50000037  0.99999987  0.73893102
   0.49999970  0.50000030  0.23893103
   0.50000030  0.49999970  0.73893101
   0.41675124  0.08324873  0.10512105
   0.41675138  0.33350112  0.10512055
   0.16649909  0.08324871  0.10512054
   0.08324873  0.41675127  0.60512107
   0.08324871  0.16649909  0.60512056
   0.33350113  0.41675140  0.60512057
   0.08182836  0.41817165  0.89489908
   0.33634720  0.41817152  0.89490041
   0.08182858  0.16365299  0.89490042
   0.41817162  0.08182835  0.39489904
   0.16365299  0.08182858  0.39490038
   0.41817149  0.33634719  0.39490036
   0.41675120  0.58324877  0.10512109
   0.41675126  0.83350085  0.10512058
   0.16649913  0.58324873  0.10512058
   0.08324873  0.91675121  0.60512104
   0.08324858  0.66649887  0.60512055
   0.33350113  0.91675136  0.60512055
   0.08182836  0.91817159  0.89489911
   0.33634720  0.91817147  0.89490043
   0.08182847  0.66365280  0.89490043
   0.41817158  0.58182839  0.39489900
   0.16365302  0.58182860  0.39490034
   0.41817140  0.83634696  0.39490034
   0.91675124  0.08324873  0.10512102
   0.91675139  0.33350115  0.10512052
   0.66649886  0.08324858  0.10512052
   0.58324880  0.41675123  0.60512111
   0.58324874  0.16649914  0.60512060
   0.83350083  0.41675126  0.60512060
   0.58182842  0.41817161  0.89489905
   0.83634693  0.41817140  0.89490038
   0.58182860  0.16365304  0.89490038
   0.91817161  0.08182836  0.39489907
   0.66365279  0.08182847  0.39490039
   0.91817150  0.33634722  0.39490039
   0.91675124  0.58324872  0.10512105
   0.91675129  0.83350091  0.10512054
   0.66649889  0.58324859  0.10512055
   0.58324873  0.91675122  0.60512107
   0.58324861  0.66649890  0.60512057
   0.83350085  0.91675124  0.60512056
   0.58182835  0.91817159  0.89489908
   0.83634695  0.91817136  0.89490042
   0.58182849  0.66365283  0.89490041
   0.91817161  0.58182835  0.39489904
   0.66365282  0.58182847  0.39490036
   0.91817142  0.83634700  0.39490038
   0.33331397  0.16668606  0.25932288
   0.16668606  0.33331399  0.75932292
   0.33331399  0.66668602  0.25932288
   0.16668610  0.83331390  0.75932293
   0.83331382  0.16668608  0.25932288
   0.66668602  0.33331400  0.75932292
   0.83331389  0.66668603  0.25932288
   0.66668607  0.83331392  0.75932292
   0.16666707  0.33333306  0.02592900
   0.33333304  0.16666707  0.52592900
   0.33333405  0.16666605  0.97406498
   0.16666606  0.33333407  0.47406498
   0.16666704  0.83333296  0.02592901
   0.33333298  0.66666702  0.52592897
   0.33333400  0.66666600  0.97406501
   0.16666603  0.83333398  0.47406495
   0.66666702  0.33333300  0.02592897
   0.83333288  0.16666702  0.52592901
   0.83333390  0.16666601  0.97406495
   0.66666601  0.33333401  0.47406501
   0.66666700  0.83333291  0.02592900
   0.83333288  0.66666696  0.52592900
   0.83333390  0.66666595  0.97406498
   0.66666598  0.83333393  0.47406498
   0.00000037  0.99999963  0.15334075
   0.99999963  0.00000037  0.65334072
   0.00000097  0.99999903  0.85020629
   0.99999903  0.00000097  0.35020622
   0.00000033  0.49999957  0.15334072
   0.99999966  0.50000042  0.65334070
   0.00000101  0.49999909  0.85020631
   0.99999899  0.50000090  0.35020624
   0.50000043  0.99999967  0.15334072
   0.49999957  0.00000033  0.65334070
   0.50000091  0.99999899  0.85020631
   0.49999909  0.00000101  0.35020624
   0.50000040  0.49999959  0.15334071
   0.49999959  0.50000040  0.65334069
   0.50000093  0.49999906  0.85020632
   0.49999906  0.50000093  0.35020626
   0.16666719  0.33333276  0.93759041
   0.33333274  0.16666718  0.43759041
   0.33333410  0.16666581  0.06193929
   0.16666581  0.33333413  0.56193927
   0.16666721  0.83333280  0.93759037
   0.33333276  0.66666724  0.43759046
   0.33333413  0.66666587  0.06193922
   0.16666583  0.83333417  0.56193932
   0.66666724  0.33333278  0.93759046
   0.83333272  0.16666718  0.43759037
   0.83333409  0.16666581  0.06193933
   0.66666588  0.33333415  0.56193921
   0.66666729  0.83333280  0.93759041
   0.83333277  0.66666725  0.43759041
   0.83333414  0.66666589  0.06193929
   0.66666593  0.83333417  0.56193927
   0.08934129  0.41065864  0.24952887
   0.08935468  0.17867968  0.24952947
   0.32132008  0.41064518  0.24952948
   0.41065863  0.08934128  0.74952880
   0.41064517  0.32132007  0.74952941
   0.17867966  0.08935467  0.74952940
   0.08934121  0.91065877  0.24952886
   0.08935468  0.67867977  0.24952947
   0.32132020  0.91064529  0.24952947
   0.41065859  0.58934137  0.74952881
   0.41064519  0.82132015  0.74952941
   0.17867987  0.58935478  0.74952941
   0.58934139  0.41065860  0.24952887
   0.58935479  0.17867988  0.24952947
   0.82132016  0.41064519  0.24952947
   0.91065879  0.08934122  0.74952879
   0.91064530  0.32132020  0.74952940
   0.67867980  0.08935470  0.74952940
   0.58934132  0.91065871  0.24952887
   0.58935478  0.67867989  0.24952948
   0.82132033  0.91064532  0.24952947
   0.91065872  0.58934133  0.74952880
   0.91064534  0.82132036  0.74952940
   0.67867992  0.58935479  0.74952941
   0.07385328  0.42614661  0.05561627
   0.07385286  0.14770488  0.05561568
   0.35229503  0.42614705  0.05561566
   0.42614659  0.07385329  0.55561626
   0.42614705  0.35229502  0.55561564
   0.14770489  0.07385286  0.55561567
   0.42576815  0.07423176  0.94604020
   0.14846542  0.07423061  0.94604078
   0.42576931  0.35153447  0.94604080
   0.07423175  0.42576816  0.44604020
   0.35153448  0.42576931  0.44604080
   0.07423061  0.14846542  0.44604078
   0.07385331  0.92614665  0.05561628
   0.07385286  0.64770490  0.05561566
   0.35229503  0.92614711  0.05561566
   0.42614665  0.57385335  0.55561626
   0.42614709  0.85229507  0.55561567
   0.14770492  0.57385290  0.55561567
   0.42576820  0.57423180  0.94604019
   0.14846546  0.57423064  0.94604078
   0.42576935  0.85153454  0.94604078
   0.07423177  0.92576820  0.44604019
   0.35153448  0.92576935  0.44604080
   0.07423062  0.64846545  0.44604080
   0.57385332  0.42614665  0.05561627
   0.57385291  0.14770492  0.05561568
   0.85229511  0.42614709  0.05561568
   0.92614673  0.07385334  0.55561626
   0.92614716  0.35229504  0.55561565
   0.64770493  0.07385288  0.55561565
   0.92576827  0.07423180  0.94604019
   0.64846547  0.07423064  0.94604080
   0.92576940  0.35153450  0.94604080
   0.57423178  0.42576819  0.44604019
   0.85153457  0.42576935  0.44604078
   0.57423065  0.14846546  0.44604078
   0.57385336  0.92614671  0.05561627
   0.57385292  0.64770492  0.05561566
   0.85229510  0.92614713  0.05561568
   0.92614674  0.57385339  0.55561626
   0.92614718  0.85229511  0.55561567
   0.64770495  0.57385294  0.55561564
   0.92576827  0.57423183  0.94604020
   0.64846549  0.57423068  0.94604080
   0.92576943  0.85153458  0.94604078
   0.57423180  0.92576824  0.44604020
   0.85153456  0.92576938  0.44604078
   0.57423066  0.64846547  0.44604080
   0.25299418  0.24700571  0.15014826
   0.25299482  0.00598718  0.15015047
   0.49401294  0.24700517  0.15015050
   0.24700571  0.25299418  0.65014823
   0.24700517  0.49401292  0.65015047
   0.00598718  0.25299482  0.65015044
   0.24675649  0.25324342  0.84894658
   0.00649567  0.25324574  0.84894236
   0.24675425  0.49350441  0.84894234
   0.25324342  0.24675648  0.34894653
   0.49350443  0.24675425  0.34894229
   0.25324574  0.00649567  0.34894232
   0.25299408  0.74700589  0.15014832
   0.25299466  0.50598682  0.15015055
   0.49401315  0.74700533  0.15015055
   0.24700572  0.75299430  0.65014821
   0.24700500  0.99401260  0.65015041
   0.00598737  0.75299497  0.65015041
   0.24675651  0.75324351  0.84894660
   0.00649582  0.75324585  0.84894238
   0.24675411  0.99350414  0.84894238
   0.25324335  0.74675662  0.34894649
   0.49350459  0.74675438  0.34894226
   0.25324561  0.50649539  0.34894226
   0.75299428  0.24700570  0.15014824
   0.75299493  0.00598734  0.15015044
   0.99401267  0.24700503  0.15015044
   0.74700596  0.25299411  0.65014828
   0.74700538  0.49401317  0.65015051
   0.50598684  0.25299466  0.65015051
   0.74675669  0.25324337  0.84894654
   0.50649541  0.25324561  0.84894231
   0.74675443  0.49350461  0.84894231
   0.75324349  0.24675649  0.34894655
   0.99350422  0.24675414  0.34894234
   0.75324581  0.00649580  0.34894234
   0.75299422  0.74700581  0.15014826
   0.75299478  0.50598708  0.15015050
   0.99401279  0.74700517  0.15015047
   0.74700588  0.75299429  0.65014823
   0.74700519  0.99401276  0.65015044
   0.50598710  0.75299482  0.65015047
   0.74675664  0.75324351  0.84894658
   0.50649561  0.75324574  0.84894234
   0.74675427  0.99350427  0.84894236
   0.75324345  0.74675657  0.34894653
   0.99350431  0.74675425  0.34894232
   0.75324570  0.50649559  0.34894229
   0.33333604  0.16666471  0.81228691
   0.16666471  0.33333606  0.31228691
   0.16666802  0.33333289  0.18634689
   0.33333287  0.16666801  0.68634686
   0.33333573  0.66666427  0.81228689
   0.16666452  0.83333549  0.31228692
   0.16666778  0.83333222  0.18634687
   0.33333251  0.66666750  0.68634689
   0.83333541  0.16666450  0.81228692
   0.66666428  0.33333575  0.31228689
   0.66666750  0.33333252  0.18634691
   0.83333214  0.16666776  0.68634685
   0.83333524  0.66666396  0.81228691
   0.66666400  0.83333527  0.31228691
   0.66666716  0.83333197  0.18634689
   0.83333194  0.66666713  0.68634686
Direct configuration=     2
   0.00000073  0.99999927  0.00030534
   0.99999927  0.00000073  0.50030534
   0.00000073  0.49999927  0.00030535
   0.99999926  0.50000072  0.50030535
   0.50000073  0.99999926  0.00030535
   0.49999927  0.00000074  0.50030535
   0.50000073  0.49999927  0.00030535
   0.49999927  0.50000073  0.50030535
   0.99999968  0.00000032  0.23892651
   0.00000032  0.99999968  0.73892649
   0.99999978  0.50000045  0.23892650
   0.00000021  0.49999954  0.73892648
   0.49999955  0.00000022  0.23892650
   0.50000045  0.99999978  0.73892648
   0.49999961  0.50000038  0.23892649
   0.50000038  0.49999961  0.73892647
   0.41675582  0.08324415  0.10512336
   0.41675594  0.33351012  0.10512290
   0.16649008  0.08324415  0.10512288
   0.08324416  0.41675585  0.60512338
   0.08324415  0.16649008  0.60512291
   0.33351013  0.41675596  0.60512292
   0.08183076  0.41816924  0.89489987
   0.33634225  0.41816906  0.89490114
   0.08183104  0.16365794  0.89490116
   0.41816922  0.08183076  0.39489982
   0.16365794  0.08183104  0.39490111
   0.41816904  0.33634224  0.39490110
   0.41675577  0.58324419  0.10512340
   0.41675582  0.83350986  0.10512293
   0.16649012  0.58324417  0.10512293
   0.08324416  0.91675579  0.60512335
   0.08324402  0.66648986  0.60512289
   0.33351014  0.91675592  0.60512289
   0.08183076  0.91816918  0.89489989
   0.33634226  0.91816902  0.89490117
   0.08183093  0.66365775  0.89490117
   0.41816918  0.58183079  0.39489979
   0.16365797  0.58183106  0.39490107
   0.41816894  0.83634201  0.39490107
   0.91675582  0.08324415  0.10512333
   0.91675595  0.33351015  0.10512287
   0.66648985  0.08324402  0.10512287
   0.58324422  0.41675580  0.60512342
   0.58324418  0.16649014  0.60512295
   0.83350983  0.41675582  0.60512295
   0.58183082  0.41816921  0.89489983
   0.83634199  0.41816894  0.89490112
   0.58183106  0.16365798  0.89490112
   0.91816921  0.08183076  0.39489985
   0.66365774  0.08183093  0.39490112
   0.91816904  0.33634227  0.39490112
   0.91675582  0.58324415  0.10512336
   0.91675585  0.83350991  0.10512288
   0.66648989  0.58324403  0.10512290
   0.58324415  0.91675579  0.60512338
   0.58324405  0.66648990  0.60512292
   0.83350986  0.91675580  0.60512291
   0.58183076  0.91816919  0.89489987
   0.83634200  0.91816891  0.89490116
   0.58183095  0.66365778  0.89490114
   0.91816921  0.58183075  0.39489982
   0.66365776  0.58183093  0.39490110
   0.91816896  0.83634206  0.39490111
   0.33331356  0.16668647  0.25932978
   0.16668647  0.33331358  0.75932982
   0.33331358  0.66668643  0.25932978
   0.16668651  0.83331349  0.75932983
   0.83331341  0.16668649  0.25932978
   0.66668643  0.33331359  0.75932982
   0.83331348  0.66668644  0.25932978
   0.66668648  0.83331351  0.75932982
   0.16666713  0.33333301  0.02592997
   0.33333299  0.16666712  0.52592997
   0.33333410  0.16666600  0.97405828
   0.16666600  0.33333412  0.47405828
   0.16666709  0.83333291  0.02592999
   0.33333293  0.66666707  0.52592995
   0.33333405  0.66666595  0.97405831
   0.16666597  0.83333403  0.47405826
   0.66666708  0.33333295  0.02592995
   0.83333283  0.16666707  0.52592999
   0.83333395  0.16666595  0.97405826
   0.66666596  0.33333407  0.47405831
   0.66666705  0.83333286  0.02592997
   0.83333283  0.66666701  0.52592997
   0.83333395  0.66666589  0.97405828
   0.66666593  0.83333398  0.47405828
   0.00000039  0.99999961  0.15333717
   0.99999961  0.00000039  0.65333715
   0.00000090  0.99999910  0.85021513
   0.99999910  0.00000090  0.35021507
   0.00000036  0.49999955  0.15333715
   0.99999964  0.50000045  0.65333713
   0.00000094  0.49999915  0.85021516
   0.99999905  0.50000084  0.35021509
   0.50000045  0.99999964  0.15333715
   0.49999955  0.00000036  0.65333713
   0.50000084  0.99999906  0.85021516
   0.49999916  0.00000094  0.35021509
   0.50000043  0.49999957  0.15333713
   0.49999957  0.50000042  0.65333711
   0.50000087  0.49999913  0.85021517
   0.49999913  0.50000087  0.35021510
   0.16666717  0.33333278  0.93759246
   0.33333276  0.16666716  0.43759246
   0.33333419  0.16666572  0.06193615
   0.16666573  0.33333421  0.56193614
   0.16666719  0.83333282  0.93759242
   0.33333278  0.66666722  0.43759251
   0.33333422  0.66666579  0.06193609
   0.16666575  0.83333426  0.56193618
   0.66666723  0.33333280  0.93759251
   0.83333274  0.16666716  0.43759242
   0.83333418  0.16666572  0.06193619
   0.66666579  0.33333423  0.56193607
   0.66666727  0.83333282  0.93759246
   0.83333279  0.66666724  0.43759246
   0.83333423  0.66666581  0.06193615
   0.66666584  0.83333426  0.56193614
   0.08934642  0.41065352  0.24952492
   0.08935982  0.17869014  0.24952551
   0.32130962  0.41064004  0.24952552
   0.41065351  0.08934641  0.74952486
   0.41064003  0.32130961  0.74952546
   0.17869013  0.08935981  0.74952545
   0.08934633  0.91065365  0.24952492
   0.08935982  0.67869023  0.24952552
   0.32130974  0.91064016  0.24952552
   0.41065347  0.58934649  0.74952486
   0.41064005  0.82130969  0.74952545
   0.17869033  0.58935992  0.74952545
   0.58934652  0.41065348  0.24952493
   0.58935992  0.17869034  0.24952552
   0.82130970  0.41064005  0.24952552
   0.91065366  0.08934634  0.74952485
   0.91064016  0.32130974  0.74952545
   0.67869026  0.08935984  0.74952545
   0.58934644  0.91065359  0.24952492
   0.58935991  0.67869036  0.24952552
   0.82130987  0.91064019  0.24952551
   0.91065360  0.58934645  0.74952486
   0.91064021  0.82130989  0.74952545
   0.67869039  0.58935993  0.74952546
   0.07385328  0.42614661  0.05561425
   0.07385297  0.14770478  0.05561370
   0.35229513  0.42614694  0.05561367
   0.42614660  0.07385328  0.55561424
   0.42614694  0.35229512  0.55561366
   0.14770479  0.07385297  0.55561369
   0.42576462  0.07423529  0.94604557
   0.14847260  0.07423426  0.94604606
   0.42576566  0.35152730  0.94604609
   0.07423528  0.42576463  0.44604557
   0.35152730  0.42576566  0.44604609
   0.07423426  0.14847260  0.44604606
   0.07385331  0.92614666  0.05561425
   0.07385296  0.64770480  0.05561368
   0.35229513  0.92614700  0.05561368
   0.42614666  0.57385334  0.55561424
   0.42614698  0.85229518  0.55561368
   0.14770482  0.57385301  0.55561368
   0.42576467  0.57423533  0.94604557
   0.14847264  0.57423430  0.94604607
   0.42576570  0.85152736  0.94604607
   0.07423530  0.92576467  0.44604557
   0.35152730  0.92576570  0.44604609
   0.07423427  0.64847262  0.44604609
   0.57385332  0.42614665  0.05561425
   0.57385301  0.14770482  0.05561370
   0.85229521  0.42614698  0.05561370
   0.92614673  0.07385334  0.55561424
   0.92614705  0.35229514  0.55561366
   0.64770483  0.07385299  0.55561366
   0.92576474  0.07423533  0.94604557
   0.64847265  0.07423429  0.94604609
   0.92576575  0.35152732  0.94604609
   0.57423531  0.42576466  0.44604557
   0.85152739  0.42576570  0.44604607
   0.57423430  0.14847263  0.44604607
   0.57385336  0.92614671  0.05561425
   0.57385303  0.64770482  0.05561367
   0.85229520  0.92614703  0.05561370
   0.92614674  0.57385338  0.55561424
   0.92614707  0.85229521  0.55561369
   0.64770485  0.57385305  0.55561366
   0.92576473  0.57423536  0.94604557
   0.64847267  0.57423434  0.94604609
   0.92576578  0.85152740  0.94604606
   0.57423534  0.92576470  0.44604557
   0.85152738  0.92576573  0.44604606
   0.57423431  0.64847265  0.44604609
   0.25299007  0.24700982  0.15014982
   0.25299060  0.00597869  0.15015184
   0.49402144  0.24700939  0.15015187
   0.24700982  0.25299007  0.65014979
   0.24700939  0.49402141  0.65015184
   0.00597869  0.25299060  0.65015181
   0.24676254  0.25323737  0.84894385
   0.00648323  0.25323957  0.84893990
   0.24676042  0.49351685  0.84893987
   0.25323737  0.24676254  0.34894380
   0.49351687  0.24676042  0.34893983
   0.25323957  0.00648323  0.34893986
   0.25298997  0.74701000  0.15014987
   0.25299044  0.50597833  0.15015192
   0.49402164  0.74700956  0.15015192
   0.24700983  0.75299019  0.65014976
   0.24700922  0.99402109  0.65015178
   0.00597887  0.75299075  0.65015178
   0.24676257  0.75323745  0.84894386
   0.00648338  0.75323969  0.84893992
   0.24676028  0.99351658  0.84893992
   0.25323729  0.74676268  0.34894376
   0.49351703  0.74676055  0.34893980
   0.25323945  0.50648295  0.34893980
   0.75299017  0.24700981  0.15014980
   0.75299070  0.00597885  0.15015181
   0.99402117  0.24700925  0.15015181
   0.74701007  0.25299000  0.65014984
   0.74700960  0.49402166  0.65015188
   0.50597835  0.25299044  0.65015188
   0.74676275  0.25323732  0.84894381
   0.50648297  0.25323945  0.84893984
   0.74676059  0.49351705  0.84893984
   0.75323743  0.24676254  0.34894382
   0.99351666  0.24676031  0.34893987
   0.75323965  0.00648336  0.34893987
   0.75299011  0.74700992  0.15014982
   0.75299056  0.50597858  0.15015187
   0.99402128  0.74700939  0.15015184
   0.74700999  0.75299018  0.65014979
   0.74700941  0.99402125  0.65015181
   0.50597860  0.75299060  0.65015184
   0.74676270  0.75323745  0.84894385
   0.50648317  0.75323957  0.84893987
   0.74676044  0.99351671  0.84893990
   0.75323739  0.74676263  0.34894380
   0.99351675  0.74676042  0.34893986
   0.75323953  0.50648315  0.34893983
   0.33333609  0.16666465  0.81228859
   0.16666465  0.33333611  0.31228859
   0.16666796  0.33333295  0.18633710
   0.33333293  0.16666796  0.68633708
   0.33333579  0.66666421  0.81228857
   0.16666446  0.83333554  0.31228860
   0.16666773  0.83333228  0.18633708
   0.33333256  0.66666744  0.68633710
   0.83333547  0.16666444  0.81228860
   0.66666422  0.33333580  0.31228857
   0.66666745  0.33333258  0.18633712
   0.83333220  0.16666770  0.68633706
   0.83333530  0.66666390  0.81228859
   0.66666394  0.83333533  0.31228859
   0.66666710  0.83333202  0.18633710
   0.83333199  0.66666707  0.68633708
Direct configuration=     3
   0.00000072  0.99999928  0.00030482
   0.99999928  0.00000072  0.50030482
   0.00000073  0.49999928  0.00030482
   0.99999927  0.50000071  0.50030482
   0.50000072  0.99999927  0.00030482
   0.49999928  0.00000073  0.50030482
   0.50000072  0.49999928  0.00030482
   0.49999928  0.50000072  0.50030482
   0.99999970  0.00000030  0.23892724
   0.00000030  0.99999970  0.73892722
   0.99999980  0.50000044  0.23892723
   0.00000020  0.49999956  0.73892721
   0.49999956  0.00000020  0.23892723
   0.50000044  0.99999980  0.73892721
   0.49999963  0.50000037  0.23892722
   0.50000037  0.49999963  0.73892720
   0.41675509  0.08324488  0.10512299
   0.41675520  0.33350868  0.10512252
   0.16649152  0.08324488  0.10512251
   0.08324489  0.41675511  0.60512301
   0.08324488  0.16649153  0.60512253
   0.33350869  0.41675523  0.60512254
   0.08183038  0.41816963  0.89489974
   0.33634305  0.41816946  0.89490102
   0.08183064  0.16365715  0.89490104
   0.41816960  0.08183037  0.39489970
   0.16365714  0.08183064  0.39490099
   0.41816943  0.33634304  0.39490098
   0.41675504  0.58324492  0.10512303
   0.41675509  0.83350842  0.10512255
   0.16649156  0.58324490  0.10512255
   0.08324489  0.91675506  0.60512298
   0.08324475  0.66649131  0.60512252
   0.33350870  0.91675519  0.60512252
   0.08183038  0.91816957  0.89489977
   0.33634305  0.91816941  0.89490105
   0.08183053  0.66365695  0.89490105
   0.41816956  0.58183040  0.39489966
   0.16365717  0.58183066  0.39490096
   0.41816933  0.83634280  0.39490096
   0.91675508  0.08324489  0.10512296
   0.91675522  0.33350871  0.10512249
   0.66649130  0.08324475  0.10512249
   0.58324496  0.41675507  0.60512305
   0.58324491  0.16649158  0.60512257
   0.83350839  0.41675509  0.60512257
   0.58183043  0.41816959  0.89489971
   0.83634278  0.41816933  0.89490100
   0.58183067  0.16365719  0.89490100
   0.91816960  0.08183037  0.39489972
   0.66365694  0.08183053  0.39490101
   0.91816944  0.33634307  0.39490101
   0.91675508  0.58324488  0.10512299
   0.91675512  0.83350847  0.10512251
   0.66649133  0.58324476  0.10512252
   0.58324489  0.91675506  0.60512301
   0.58324478  0.66649134  0.60512254
   0.83350842  0.91675506  0.60512253
   0.58183037  0.91816957  0.89489974
   0.83634280  0.91816930  0.89490104
   0.58183056  0.66365698  0.89490102
   0.91816960  0.58183037  0.39489970
   0.66365697  0.58183054  0.39490098
   0.91816935  0.83634285  0.39490099
   0.33331362  0.16668640  0.25932867
   0.16668641  0.33331364  0.75932872
   0.33331364  0.66668636  0.25932867
   0.16668645  0.83331356  0.75932872
   0.83331348  0.16668642  0.25932868
   0.66668637  0.33331366  0.75932872
   0.83331355  0.66668638  0.25932867
   0.66668641  0.83331358  0.75932872
   0.16666712  0.33333302  0.02592982
   0.33333299  0.16666711  0.52592982
   0.33333409  0.16666601  0.97405935
   0.16666601  0.33333411  0.47405935
   0.16666709  0.83333292  0.02592983
   0.33333294  0.66666706  0.52592979
   0.33333404  0.66666596  0.97405938
   0.16666598  0.83333402  0.47405933
   0.66666707  0.33333296  0.02592979
   0.83333284  0.16666706  0.52592983
   0.83333394  0.16666596  0.97405933
   0.66666597  0.33333406  0.47405938
   0.66666704  0.83333287  0.02592982
   0.83333284  0.66666700  0.52592982
   0.83333394  0.66666590  0.97405935
   0.66666594  0.83333397  0.47405935
   0.00000039  0.99999961  0.15333774
   0.99999961  0.00000039  0.65333772
   0.00000091  0.99999909  0.85021372
   0.99999909  0.00000091  0.35021365
   0.00000035  0.49999955  0.15333772
   0.99999964  0.50000044  0.65333770
   0.00000095  0.49999914  0.85021374
   0.99999904  0.50000085  0.35021367
   0.50000045  0.99999965  0.15333772
   0.49999955  0.00000035  0.65333770
   0.50000085  0.99999905  0.85021374
   0.49999915  0.00000095  0.35021367
   0.50000042  0.49999957  0.15333771
   0.49999957  0.50000042  0.65333768
   0.50000088  0.49999912  0.85021375
   0.49999912  0.50000088  0.35021369
   0.16666717  0.33333278  0.93759213
   0.33333276  0.16666716  0.43759213
   0.33333418  0.16666573  0.06193666
   0.16666574  0.33333420  0.56193664
   0.16666719  0.83333281  0.93759209
   0.33333278  0.66666722  0.43759218
   0.33333420  0.66666580  0.06193659
   0.16666576  0.83333424  0.56193668
   0.66666723  0.33333280  0.93759218
   0.83333274  0.16666717  0.43759209
   0.83333417  0.16666574  0.06193670
   0.66666581  0.33333422  0.56193657
   0.66666727  0.83333282  0.93759213
   0.83333279  0.66666724  0.43759213
   0.83333422  0.66666582  0.06193666
   0.66666586  0.83333425  0.56193664
   0.08934560  0.41065434  0.24952555
   0.08935900  0.17868846  0.24952615
   0.32131130  0.41064087  0.24952616
   0.41065433  0.08934559  0.74952549
   0.41064085  0.32131129  0.74952609
   0.17868845  0.08935898  0.74952608
   0.08934551  0.91065447  0.24952555
   0.08935900  0.67868855  0.24952615
   0.32131141  0.91064098  0.24952615
   0.41065429  0.58934567  0.74952549
   0.41064087  0.82131137  0.74952609
   0.17868865  0.58935909  0.74952609
   0.58934570  0.41065430  0.24952556
   0.58935910  0.17868867  0.24952615
   0.82131138  0.41064088  0.24952615
   0.91065448  0.08934552  0.74952548
   0.91064099  0.32131141  0.74952608
   0.67868858  0.08935902  0.74952608
   0.58934562  0.91065441  0.24952555
   0.58935909  0.67868868  0.24952616
   0.82131155  0.91064101  0.24952615
   0.91065442  0.58934563  0.74952549
   0.91064103  0.82131157  0.74952608
   0.67868871  0.58935910  0.74952609
   0.07385328  0.42614661  0.05561457
   0.07385295  0.14770480  0.05561402
   0.35229511  0.42614696  0.05561399
   0.42614660  0.07385328  0.55561456
   0.42614696  0.35229510  0.55561398
   0.14770480  0.07385295  0.55561401
   0.42576518  0.07423472  0.94604471
   0.14847145  0.07423368  0.94604522
   0.42576624  0.35152845  0.94604524
   0.07423472  0.42576520  0.44604471
   0.35152845  0.42576624  0.44604524
   0.07423368  0.14847145  0.44604522
   0.07385331  0.92614666  0.05561458
   0.07385295  0.64770482  0.05561399
   0.35229511  0.92614702  0.05561399
   0.42614666  0.57385334  0.55561456
   0.42614700  0.85229516  0.55561400
   0.14770484  0.57385299  0.55561400
   0.42576523  0.57423477  0.94604471
   0.14847149  0.57423371  0.94604522
   0.42576628  0.85152851  0.94604522
   0.07423473  0.92576523  0.44604471
   0.35152845  0.92576629  0.44604524
   0.07423368  0.64847147  0.44604524
   0.57385332  0.42614665  0.05561457
   0.57385300  0.14770483  0.05561401
   0.85229519  0.42614700  0.05561401
   0.92614673  0.07385334  0.55561457
   0.92614707  0.35229513  0.55561398
   0.64770484  0.07385297  0.55561398
   0.92576531  0.07423476  0.94604471
   0.64847150  0.07423371  0.94604524
   0.92576633  0.35152847  0.94604524
   0.57423474  0.42576523  0.44604471
   0.85152854  0.42576628  0.44604522
   0.57423371  0.14847148  0.44604522
   0.57385336  0.92614671  0.05561457
   0.57385301  0.64770484  0.05561399
   0.85229519  0.92614704  0.05561402
   0.92614674  0.57385338  0.55561456
   0.92614709  0.85229520  0.55561401
   0.64770487  0.57385303  0.55561398
   0.92576530  0.57423480  0.94604471
   0.64847152  0.57423375  0.94604524
   0.92576636  0.85152855  0.94604522
   0.57423477  0.92576527  0.44604471
   0.85152853  0.92576631  0.44604522
   0.57423373  0.64847150  0.44604524
   0.25299073  0.24700916  0.15014957
   0.25299128  0.00598005  0.15015162
   0.49402007  0.24700872  0.15015165
   0.24700916  0.25299073  0.65014954
   0.24700872  0.49402005  0.65015162
   0.00598005  0.25299128  0.65015159
   0.24676157  0.25323834  0.84894428
   0.00648522  0.25324056  0.84894029
   0.24675943  0.49351485  0.84894027
   0.25323834  0.24676157  0.34894424
   0.49351488  0.24675943  0.34894022
   0.25324056  0.00648522  0.34894025
   0.25299063  0.74700934  0.15014962
   0.25299111  0.50597969  0.15015170
   0.49402028  0.74700888  0.15015170
   0.24700917  0.75299085  0.65014951
   0.24700855  0.99401973  0.65015156
   0.00598024  0.75299142  0.65015156
   0.24676160  0.75323842  0.84894430
   0.00648537  0.75324068  0.84894031
   0.24675929  0.99351459  0.84894031
   0.25323826  0.74676171  0.34894420
   0.49351504  0.74675956  0.34894019
   0.25324044  0.50648494  0.34894019
   0.75299083  0.24700915  0.15014955
   0.75299138  0.00598021  0.15015159
   0.99401980  0.24700857  0.15015159
   0.74700941  0.25299066  0.65014959
   0.74700893  0.49402030  0.65015166
   0.50597971  0.25299111  0.65015166
   0.74676178  0.25323829  0.84894424
   0.50648496  0.25324044  0.84894024
   0.74675960  0.49351505  0.84894024
   0.75323840  0.24676157  0.34894426
   0.99351467  0.24675932  0.34894027
   0.75324063  0.00648535  0.34894027
   0.75299077  0.74700926  0.15014957
   0.75299124  0.50597995  0.15015165
   0.99401992  0.74700872  0.15015162
   0.74700933  0.75299084  0.65014954
   0.74700873  0.99401989  0.65015159
   0.50597997  0.75299128  0.65015162
   0.74676173  0.75323842  0.84894428
   0.50648516  0.75324056  0.84894027
   0.74675945  0.99351472  0.84894029
   0.75323836  0.74676166  0.34894424
   0.99351475  0.74675943  0.34894025
   0.75324052  0.50648514  0.34894022
   0.33333608  0.16666466  0.81228832
   0.16666466  0.33333611  0.31228832
   0.16666797  0.33333294  0.18633867
   0.33333292  0.16666797  0.68633864
   0.33333578  0.66666422  0.81228830
   0.16666447  0.83333553  0.31228834
   0.16666774  0.83333227  0.18633865
   0.33333255  0.66666745  0.68633867
   0.83333546  0.16666445  0.81228834
   0.66666423  0.33333580  0.31228830
   0.66666746  0.33333257  0.18633869
   0.83333219  0.16666771  0.68633863
   0.83333529  0.66666391  0.81228832
   0.66666395  0.83333532  0.31228832
   0.66666711  0.83333202  0.18633867
   0.83333198  0.66666708  0.68633864
Direct configuration=     4
   0.00000079  0.99999921  0.00030651
   0.99999921  0.00000079  0.50030651
   0.00000079  0.49999922  0.00030651
   0.99999920  0.50000078  0.50030651
   0.50000078  0.99999921  0.00030651
   0.49999922  0.00000079  0.50030651
   0.50000078  0.49999921  0.00030652
   0.49999921  0.50000078  0.50030652
   0.99999956  0.00000044  0.23892255
   0.00000044  0.99999956  0.73892253
   0.99999966  0.50000057  0.23892254
   0.00000033  0.49999942  0.73892252