Ca2Al24O38                              
           1
    11.446102    0.000000    0.000000
    -5.723051    9.912615    0.000000
     0.000000    0.000000   22.382418
   Al   Ca   Mg   O    Ti
  64   8  16 152  16
Direct configuration=     1
   1.00000000  0.00000000  0.00012785
   0.00000000  1.00000000  0.50012785
   0.99999999  0.50000000  0.00012785
   0.00000000  0.49999999  0.50012785
   0.50000000  0.00000000  0.00012785
   0.50000000  1.00000000  0.50012785
   0.49999999  0.50000000  0.00012785
   0.50000000  0.49999999  0.50012785
   0.00000558  0.99999442  0.24667534
   0.99999442  0.00000558  0.74667532
   0.00000557  0.49999442  0.24667534
   0.99999442  0.50000557  0.74667532
   0.50000558  0.99999442  0.24667534
   0.49999442  0.00000558  0.74667532
   0.50000557  0.49999442  0.24667534
   0.49999442  0.50000557  0.74667532
   0.41723726  0.08276271  0.10598201
   0.41723798  0.33447233  0.10598030
   0.16552769  0.08276199  0.10598030
   0.08276271  0.41723729  0.60598204
   0.08276199  0.16552769  0.60598032
   0.33447234  0.41723800  0.60598032
   0.08238912  0.41761089  0.89408410
   0.33521958  0.41761162  0.89408578
   0.08238838  0.16478045  0.89408578
   0.41761086  0.08238911  0.39408405
   0.16478045  0.08238838  0.39408573
   0.41761159  0.33521957  0.39408573
   0.41723726  0.58276270  0.10598201
   0.41723800  0.83447230  0.10598030
   0.16552767  0.58276199  0.10598030
   0.08276271  0.91723724  0.60598204
   0.08276199  0.66552769  0.60598032
   0.33447232  0.91723795  0.60598032
   0.08238911  0.91761083  0.89408410
   0.33521956  0.91761156  0.89408578
   0.08238838  0.66478045  0.89408578
   0.41761086  0.58238911  0.39408405
   0.16478043  0.58238838  0.39408573
   0.41761162  0.83521954  0.39408573
   0.91723726  0.08276271  0.10598201
   0.91723798  0.33447233  0.10598030
   0.66552768  0.08276199  0.10598030
   0.58276274  0.41723729  0.60598204
   0.58276199  0.16552769  0.60598032
   0.83447228  0.41723800  0.60598032
   0.58238914  0.41761089  0.89408410
   0.83521952  0.41761162  0.89408578
   0.58238838  0.16478045  0.89408578
   0.91761086  0.08238911  0.39408405
   0.66478044  0.08238838  0.39408573
   0.91761159  0.33521957  0.39408573
   0.91723726  0.58276270  0.10598201
   0.91723800  0.83447230  0.10598030
   0.66552767  0.58276199  0.10598030
   0.58276271  0.91723724  0.60598204
   0.58276201  0.66552769  0.60598032
   0.83447225  0.91723795  0.60598032
   0.58238911  0.91761083  0.89408410
   0.83521949  0.91761156  0.89408578
   0.58238840  0.66478045  0.89408578
   0.91761086  0.58238911  0.39408405
   0.66478043  0.58238838  0.39408573
   0.91761162  0.83521954  0.39408573
   0.33333195  0.16666803  0.24964172
   0.16666804  0.33333198  0.74964176
   0.33333196  0.66666804  0.24964172
   0.16666806  0.83333195  0.74964176
   0.83333187  0.16666803  0.24964172
   0.66666805  0.33333198  0.74964176
   0.83333192  0.66666804  0.24964172
   0.66666808  0.83333195  0.74964176
   0.16666752  0.33333249  0.02588216
   0.33333247  0.16666752  0.52588216
   0.33333249  0.16666750  0.97409293
   0.16666750  0.33333251  0.47409293
   0.16666754  0.83333246  0.02588216
   0.33333247  0.66666753  0.52588216
   0.33333250  0.66666750  0.97409293
   0.16666752  0.83333249  0.47409293
   0.66666753  0.33333249  0.02588216
   0.83333238  0.16666752  0.52588216
   0.83333241  0.16666750  0.97409293
   0.66666751  0.33333251  0.47409293
   0.66666756  0.83333246  0.02588216
   0.83333243  0.66666753  0.52588216
   0.83333245  0.66666750  0.97409293
   0.66666754  0.83333249  0.47409293
   0.00000196  0.99999804  0.15401107
   0.99999804  0.00000196  0.65401105
   0.99999804  0.00000196  0.84762792
   0.00000196  0.99999804  0.34762785
   0.00000196  0.49999804  0.15401107
   0.99999804  0.50000196  0.65401105
   0.99999804  0.50000195  0.84762792
   0.00000195  0.49999804  0.34762785
   0.50000196  0.99999804  0.15401107
   0.49999804  0.00000196  0.65401105
   0.49999804  0.00000196  0.84762792
   0.50000196  0.99999804  0.34762785
   0.50000196  0.49999804  0.15401107
   0.49999804  0.50000196  0.65401105
   0.49999804  0.50000195  0.84762792
   0.50000195  0.49999804  0.34762785
   0.16666341  0.33333661  0.93761470
   0.33333659  0.16666340  0.43761470
   0.33333660  0.16666339  0.06238717
   0.16666339  0.33333662  0.56238715
   0.16666343  0.83333658  0.93761470
   0.33333659  0.66666341  0.43761470
   0.33333661  0.66666340  0.06238717
   0.16666341  0.83333659  0.56238715
   0.66666342  0.33333661  0.93761470
   0.83333650  0.16666340  0.43761470
   0.83333652  0.16666339  0.06238717
   0.66666340  0.33333662  0.56238715
   0.66666345  0.83333658  0.93761470
   0.83333655  0.66666341  0.43761470
   0.83333656  0.66666340  0.06238717
   0.66666343  0.83333659  0.56238715
   0.08976971  0.41023027  0.24977566
   0.08978442  0.17952163  0.24977568
   0.32047839  0.41021556  0.24977568
   0.41023026  0.08976970  0.74977559
   0.41021555  0.32047838  0.74977561
   0.17952161  0.08978441  0.74977561
   0.08976969  0.91023029  0.24977566
   0.08978439  0.67952159  0.24977568
   0.32047838  0.91021558  0.24977568
   0.41023026  0.58976970  0.74977559
   0.41021556  0.82047841  0.74977561
   0.17952161  0.58978441  0.74977561
   0.58976972  0.41023027  0.24977566
   0.58978441  0.17952163  0.24977568
   0.82047842  0.41021556  0.24977568
   0.91023031  0.08976970  0.74977559
   0.91021559  0.32047838  0.74977561
   0.67952161  0.08978441  0.74977561
   0.58976969  0.91023029  0.24977566
   0.58978439  0.67952159  0.24977568
   0.82047838  0.91021558  0.24977568
   0.91023031  0.58976970  0.74977559
   0.91021560  0.82047841  0.74977561
   0.67952161  0.58978441  0.74977561
   0.07391406  0.42608593  0.05578996
   0.07391158  0.14782582  0.05578797
   0.35217418  0.42608842  0.05578797
   0.42608592  0.07391406  0.55578994
   0.42608842  0.35217417  0.55578796
   0.14782583  0.07391158  0.55578796
   0.42601327  0.07398671  0.94502728
   0.14797119  0.07398428  0.94502924
   0.42601572  0.35202881  0.94502924
   0.07398671  0.42601329  0.44502728
   0.35202882  0.42601572  0.44502924
   0.07398428  0.14797119  0.44502924
   0.07391403  0.92608593  0.05578996
   0.07391156  0.64782577  0.05578797
   0.35217416  0.92608841  0.05578797
   0.42608594  0.57391406  0.55578994
   0.42608842  0.85217417  0.55578796
   0.14782583  0.57391158  0.55578796
   0.42601329  0.57398671  0.94502728
   0.14797119  0.57398427  0.94502924
   0.42601572  0.85202881  0.94502924
   0.07398668  0.92601328  0.44502728
   0.35202879  0.92601572  0.44502924
   0.07398425  0.64797113  0.44502924
   0.57391404  0.42608593  0.05578996
   0.57391158  0.14782582  0.05578797
   0.85217420  0.42608842  0.05578797
   0.92608601  0.07391406  0.55578994
   0.92608846  0.35217417  0.55578796
   0.64782580  0.07391158  0.55578796
   0.92601336  0.07398671  0.94502728
   0.64797116  0.07398428  0.94502924
   0.92601576  0.35202881  0.94502924
   0.57398668  0.42601329  0.44502728
   0.85202884  0.42601572  0.44502924
   0.57398428  0.14797119  0.44502924
   0.57391403  0.92608593  0.05578996
   0.57391156  0.64782577  0.05578797
   0.85217416  0.92608841  0.05578797
   0.92608596  0.57391406  0.55578994
   0.92608846  0.85217417  0.55578796
   0.64782580  0.57391158  0.55578796
   0.92601331  0.57398671  0.94502728
   0.64797116  0.57398427  0.94502924
   0.92601576  0.85202881  0.94502924
   0.57398668  0.92601328  0.44502728
   0.85202879  0.92601572  0.44502924
   0.57398425  0.64797113  0.44502924
   0.25337904  0.24662096  0.15116612
   0.25338354  0.00676291  0.15117570
   0.49323711  0.24661646  0.15117570
   0.24662096  0.25337904  0.65116609
   0.24661646  0.49323709  0.65117566
   0.00676291  0.25338354  0.65117566
   0.24687637  0.25312363  0.84911928
   0.00625190  0.25312808  0.84910976
   0.24687192  0.49374809  0.84910976
   0.25312363  0.24687637  0.34911924
   0.49374812  0.24687192  0.34910972
   0.25312807  0.00625190  0.34910972
   0.25337902  0.74662095  0.15116612
   0.25338354  0.50676291  0.15117570
   0.49323707  0.74661646  0.15117570
   0.24662098  0.75337904  0.65116609
   0.24661643  0.99323703  0.65117566
   0.00676293  0.75338354  0.65117566
   0.24687639  0.75312363  0.84911928
   0.00625192  0.75312807  0.84910976
   0.24687190  0.99374804  0.84910976
   0.25312361  0.74687636  0.34911924
   0.49374807  0.74687192  0.34910972
   0.25312808  0.50625190  0.34910972
   0.75337902  0.24662096  0.15116612
   0.75338349  0.00676291  0.15117570
   0.99323711  0.24661646  0.15117570
   0.74662102  0.25337904  0.65116609
   0.74661650  0.49323709  0.65117566
   0.50676293  0.25338354  0.65117566
   0.74687643  0.25312363  0.84911928
   0.50625192  0.25312808  0.84910976
   0.74687196  0.49374809  0.84910976
   0.75312361  0.24687637  0.34911924
   0.99374812  0.24687192  0.34910972
   0.75312803  0.00625190  0.34910972
   0.75337897  0.74662095  0.15116612
   0.75338350  0.50676291  0.15117570
   0.99323707  0.74661646  0.15117570
   0.74662102  0.75337904  0.65116609
   0.74661647  0.99323703  0.65117566
   0.50676293  0.75338354  0.65117566
   0.74687643  0.75312363  0.84911928
   0.50625192  0.75312807  0.84910976
   0.74687194  0.99374804  0.84910976
   0.75312356  0.74687636  0.34911924
   0.99374807  0.74687192  0.34910972
   0.75312803  0.50625190  0.34910972
   0.33333017  0.16666982  0.81326451
   0.16666982  0.33333019  0.31326451
   0.16666980  0.33333022  0.18700160
   0.33333020  0.16666979  0.68700158
   0.33333018  0.66666983  0.81326451
   0.16666984  0.83333016  0.31326451
   0.16666981  0.83333019  0.18700160
   0.33333020  0.66666980  0.68700158
   0.83333009  0.16666982  0.81326451
   0.66666983  0.33333019  0.31326451
   0.66666981  0.33333022  0.18700160
   0.83333011  0.16666979  0.68700158
   0.83333013  0.66666983  0.81326451
   0.66666986  0.83333016  0.31326451
   0.66666984  0.83333019  0.18700160
   0.83333016  0.66666980  0.68700158
Direct configuration=     2
   0.99999997  0.00000003  0.00003936
   0.00000003  0.99999997  0.50003936
   0.99999996  0.50000003  0.00003936
   0.00000003  0.49999996  0.50003936
   0.49999997  0.00000003  0.00003936
   0.50000003  0.99999997  0.50003936
   0.49999996  0.50000003  0.00003936
   0.50000003  0.49999996  0.50003936
   0.00000533  0.99999467  0.24653734
   0.99999467  0.00000533  0.74653732
   0.00000533  0.49999466  0.24653734
   0.99999467  0.50000534  0.74653732
   0.50000534  0.99999467  0.24653734
   0.49999466  0.00000533  0.74653732
   0.50000534  0.49999466  0.24653734
   0.49999466  0.50000534  0.74653732
   0.41734760  0.08265236  0.10572708
   0.41734797  0.33469222  0.10572556
   0.16530775  0.08265199  0.10572556
   0.08265237  0.41734762  0.60572711
   0.08265199  0.16530775  0.60572558
   0.33469223  0.41734800  0.60572558
   0.08223815  0.41776184  0.89432095
   0.33552068  0.41776229  0.89432244
   0.08223769  0.16447930  0.89432244
   0.41776181  0.08223815  0.39432090
   0.16447930  0.08223769  0.39432240
   0.41776226  0.33552067  0.39432240
   0.41734760  0.58265236  0.10572708
   0.41734800  0.83469223  0.10572556
   0.16530775  0.58265199  0.10572556
   0.08265236  0.91734758  0.60572710
   0.08265199  0.66530779  0.60572558
   0.33469222  0.91734795  0.60572558
   0.08223815  0.91776180  0.89432095
   0.33552066  0.91776224  0.89432244
   0.08223770  0.66447934  0.89432244
   0.41776182  0.58223815  0.39432090
   0.16447930  0.58223769  0.39432240
   0.41776230  0.83552068  0.39432240
   0.91734761  0.08265236  0.10572708
   0.91734797  0.33469223  0.10572556
   0.66530778  0.08265200  0.10572556
   0.58265240  0.41734763  0.60572711
   0.58265199  0.16530776  0.60572558
   0.83469221  0.41734800  0.60572558
   0.58223818  0.41776184  0.89432095
   0.83552065  0.41776230  0.89432244
   0.58223770  0.16447931  0.89432244
   0.91776182  0.08223815  0.39432091
   0.66447933  0.08223770  0.39432240
   0.91776227  0.33552068  0.39432240
   0.91734761  0.58265237  0.10572708
   0.91734801  0.83469224  0.10572556
   0.66530778  0.58265200  0.10572556
   0.58265238  0.91734758  0.60572711
   0.58265202  0.66530780  0.60572558
   0.83469219  0.91734796  0.60572558
   0.58223816  0.91776180  0.89432095
   0.83552064  0.91776225  0.89432244
   0.58223772  0.66447935  0.89432244
   0.91776182  0.58223816  0.39432090
   0.66447933  0.58223770  0.39432240
   0.91776231  0.83552069  0.39432240
   0.33333098  0.16666899  0.24981556
   0.16666899  0.33333100  0.74981560
   0.33333100  0.66666900  0.24981556
   0.16666902  0.83333098  0.74981560
   0.83333091  0.16666900  0.24981556
   0.66666901  0.33333101  0.74981560
   0.83333096  0.66666901  0.24981556
   0.66666905  0.83333099  0.74981560
   0.16666704  0.33333297  0.02587060
   0.33333295  0.16666704  0.52587060
   0.33333298  0.16666701  0.97403564
   0.16666701  0.33333300  0.47403564
   0.16666705  0.83333296  0.02587060
   0.33333295  0.66666705  0.52587060
   0.33333298  0.66666702  0.97403564
   0.16666702  0.83333299  0.47403564
   0.66666706  0.33333296  0.02587060
   0.83333288  0.16666702  0.52587060
   0.83333291  0.16666699  0.97403564
   0.66666703  0.33333299  0.47403564
   0.66666709  0.83333294  0.02587060
   0.83333291  0.66666705  0.52587060
   0.83333294  0.66666702  0.97403564
   0.66666706  0.83333297  0.47403564
   0.00000181  0.99999819  0.15413922
   0.99999819  0.00000181  0.65413919
   0.99999830  0.00000170  0.84740814
   0.00000170  0.99999830  0.34740807
   0.00000181  0.49999819  0.15413922
   0.99999818  0.50000181  0.65413919
   0.99999829  0.50000169  0.84740814
   0.00000170  0.49999830  0.34740807
   0.50000181  0.99999819  0.15413922
   0.49999819  0.00000181  0.65413919
   0.49999830  0.00000170  0.84740814
   0.50000170  0.99999830  0.34740807
   0.50000181  0.49999819  0.15413922
   0.49999819  0.50000181  0.65413920
   0.49999830  0.50000170  0.84740814
   0.50000170  0.49999830  0.34740807
   0.16666430  0.33333573  0.93752225
   0.33333571  0.16666429  0.43752225
   0.33333571  0.16666430  0.06255872
   0.16666430  0.33333573  0.56255870
   0.16666430  0.83333570  0.93752225
   0.33333570  0.66666430  0.43752225
   0.33333570  0.66666430  0.06255872
   0.16666431  0.83333570  0.56255870
   0.66666431  0.33333572  0.93752225
   0.83333562  0.16666428  0.43752225
   0.83333562  0.16666428  0.06255872
   0.66666431  0.33333571  0.56255870
   0.66666433  0.83333569  0.93752225
   0.83333566  0.66666429  0.43752225
   0.83333565  0.66666429  0.06255872
   0.66666433  0.83333569  0.56255870
   0.08982094  0.41017906  0.24978333
   0.08983441  0.17962478  0.24978334
   0.32037525  0.41016559  0.24978334
   0.41017905  0.08982093  0.74978326
   0.41016557  0.32037524  0.74978327
   0.17962477  0.08983440  0.74978327
   0.08982093  0.91017906  0.24978333
   0.08983438  0.67962473  0.24978334
   0.32037523  0.91016559  0.24978334
   0.41017906  0.58982090  0.74978326
   0.41016558  0.82037526  0.74978327
   0.17962476  0.58983439  0.74978327
   0.58982092  0.41017907  0.24978333
   0.58983439  0.17962477  0.24978334
   0.82037527  0.41016558  0.24978334
   0.91017907  0.08982094  0.74978326
   0.91016560  0.32037523  0.74978327
   0.67962476  0.08983440  0.74978327
   0.58982090  0.91017907  0.24978333
   0.58983437  0.67962473  0.24978334
   0.82037523  0.91016559  0.24978334
   0.91017908  0.58982091  0.74978326
   0.91016561  0.82037525  0.74978327
   0.67962475  0.58983438  0.74978327
   0.07393901  0.42606099  0.05577433
   0.07393758  0.14787489  0.05577292
   0.35212510  0.42606242  0.05577292
   0.42606098  0.07393901  0.55577432
   0.42606242  0.35212509  0.55577291
   0.14787489  0.07393758  0.55577291
   0.42598249  0.07401750  0.94513721
   0.14803197  0.07401610  0.94513861
   0.42598389  0.35196801  0.94513862
   0.07401750  0.42598250  0.44513721
   0.35196802  0.42598389  0.44513862
   0.07401610  0.14803197  0.44513861
   0.07393900  0.92606096  0.05577433
   0.07393756  0.64787484  0.05577292
   0.35212509  0.92606241  0.05577292
   0.42606099  0.57393901  0.55577432
   0.42606242  0.85212510  0.55577290
   0.14787490  0.57393757  0.55577290
   0.42598250  0.57401750  0.94513721
   0.14803198  0.57401609  0.94513862
   0.42598390  0.85196802  0.94513862
   0.07401749  0.92598247  0.44513722
   0.35196801  0.92598388  0.44513861
   0.07401609  0.64803192  0.44513861
   0.57393898  0.42606099  0.05577433
   0.57393757  0.14787490  0.05577291
   0.85212513  0.42606242  0.05577291
   0.92606104  0.07393903  0.55577432
   0.92606245  0.35212510  0.55577291
   0.64787487  0.07393759  0.55577291
   0.92598255  0.07401752  0.94513722
   0.64803195  0.07401611  0.94513861
   0.92598393  0.35196802  0.94513861
   0.57401747  0.42598250  0.44513721
   0.85196805  0.42598390  0.44513862
   0.57401610  0.14803198  0.44513862
   0.57393898  0.92606098  0.05577433
   0.57393755  0.64787485  0.05577292
   0.85212509  0.92606241  0.05577292
   0.92606101  0.57393900  0.55577432
   0.92606246  0.85212511  0.55577291
   0.64787488  0.57393758  0.55577291
   0.92598252  0.57401749  0.94513721
   0.64803196  0.57401610  0.94513862
   0.92598394  0.85196803  0.94513861
   0.57401746  0.92598249  0.44513721
   0.85196801  0.92598389  0.44513861
   0.57401608  0.64803193  0.44513862
   0.25352075  0.24647926  0.15119766
   0.25352494  0.00704532  0.15120619
   0.49295467  0.24647505  0.15120618
   0.24647926  0.25352075  0.65119763
   0.24647505  0.49295464  0.65120615
   0.00704532  0.25352495  0.65120616
   0.24680728  0.25319274  0.84900472
   0.00638911  0.25319684  0.84899624
   0.24680316  0.49361085  0.84899624
   0.25319274  0.24680727  0.34900467
   0.49361088  0.24680316  0.34899620
   0.25319683  0.00638911  0.34899619
   0.25352074  0.74647923  0.15119765
   0.25352496  0.50704534  0.15120619
   0.49295463  0.74647504  0.15120619
   0.24647929  0.75352073  0.65119763
   0.24647504  0.99295461  0.65120616
   0.00704535  0.75352493  0.65120616
   0.24680730  0.75319272  0.84900471
   0.00638914  0.75319682  0.84899624
   0.24680314  0.99361082  0.84899624
   0.25319272  0.74680725  0.34900468
   0.49361084  0.74680315  0.34899620
   0.25319685  0.50638914  0.34899620
   0.75352071  0.24647926  0.15119766
   0.75352489  0.00704533  0.15120619
   0.99295469  0.24647506  0.15120619
   0.74647930  0.25352076  0.65119762
   0.74647508  0.49295465  0.65120615
   0.50704537  0.25352496  0.65120615
   0.74680732  0.25319274  0.84900473
   0.50638916  0.25319685  0.84899624
   0.74680319  0.49361086  0.84899624
   0.75319270  0.24680728  0.34900467
   0.99361090  0.24680317  0.34899620
   0.75319678  0.00638912  0.34899620
   0.75352067  0.74647924  0.15119766
   0.75352490  0.50704535  0.15120618
   0.99295465  0.74647505  0.15120619
   0.74647931  0.75352074  0.65119763
   0.74647507  0.99295462  0.65120616
   0.50704537  0.75352494  0.65120615
   0.74680733  0.75319272  0.84900472
   0.50638916  0.75319683  0.84899624
   0.74680318  0.99361083  0.84899624
   0.75319266  0.74680726  0.34900467
   0.99361086  0.74680316  0.34899619
   0.75319679  0.50638914  0.34899620
   0.33333049  0.16666945  0.81314123
   0.16666946  0.33333051  0.31314123
   0.16666951  0.33333046  0.18725633
   0.33333044  0.16666950  0.68725630
   0.33333050  0.66666950  0.81314123
   0.16666947  0.83333054  0.31314122
   0.16666952  0.83333048  0.18725633
   0.33333044  0.66666956  0.68725630
   0.83333046  0.16666944  0.81314122
   0.66666951  0.33333051  0.31314123
   0.66666956  0.33333046  0.18725633
   0.83333041  0.16666950  0.68725631
   0.83333050  0.66666951  0.81314123
   0.66666954  0.83333053  0.31314123
   0.66666960  0.83333048  0.18725633
   0.83333045  0.66666956  0.68725630
Direct configuration=     3
   0.99999998  0.00000002  0.00007221
   0.00000002  0.99999998  0.50007221
   0.99999998  0.50000002  0.00007221
   0.00000002  0.49999997  0.50007221
   0.49999998  0.00000002  0.00007221
   0.50000002  0.99999998  0.50007221
   0.49999998  0.50000002  0.00007221
   0.50000002  0.49999997  0.50007221
   0.00000542  0.99999458  0.24658858
   0.99999458  0.00000542  0.74658856
   0.00000542  0.49999457  0.24658858
   0.99999458  0.50000542  0.74658856
   0.50000543  0.99999458  0.24658858
   0.49999457  0.00000542  0.74658856
   0.50000543  0.49999457  0.24658858
   0.49999457  0.50000542  0.74658856
   0.41730663  0.08269333  0.10582174
   0.41730713  0.33461058  0.10582014
   0.16538941  0.08269283  0.10582014
   0.08269334  0.41730666  0.60582176
   0.08269283  0.16538941  0.60582016
   0.33461059  0.41730716  0.60582016
   0.08229421  0.41770579  0.89423301
   0.33540889  0.41770635  0.89423457
   0.08229364  0.16459112  0.89423457
   0.41770576  0.08229420  0.39423296
   0.16459111  0.08229364  0.39423453
   0.41770632  0.33540888  0.39423453
   0.41730663  0.58269333  0.10582174
   0.41730716  0.83461057  0.10582014
   0.16538940  0.58269283  0.10582014
   0.08269333  0.91730661  0.60582176
   0.08269284  0.66538943  0.60582017
   0.33461057  0.91730711  0.60582017
   0.08229420  0.91770575  0.89423301
   0.33540887  0.91770630  0.89423457
   0.08229365  0.66459114  0.89423457
   0.41770577  0.58229420  0.39423296
   0.16459111  0.58229364  0.39423453
   0.41770635  0.83540887  0.39423453
   0.91730664  0.08269333  0.10582174
   0.91730713  0.33461058  0.10582014
   0.66538942  0.08269284  0.10582014
   0.58269336  0.41730666  0.60582176
   0.58269284  0.16538942  0.60582016
   0.83461055  0.41730716  0.60582016
   0.58229423  0.41770580  0.89423301
   0.83540885  0.41770635  0.89423457
   0.58229364  0.16459112  0.89423457
   0.91770577  0.08229420  0.39423297
   0.66459113  0.08229365  0.39423452
   0.91770632  0.33540888  0.39423452
   0.91730664  0.58269334  0.10582174
   0.91730716  0.83461058  0.10582014
   0.66538943  0.58269284  0.10582014
   0.58269334  0.91730661  0.60582176
   0.58269286  0.66538944  0.60582016
   0.83461053  0.91730711  0.60582016
   0.58229421  0.91770575  0.89423301
   0.83540883  0.91770630  0.89423457
   0.58229367  0.66459114  0.89423457
   0.91770577  0.58229420  0.39423296
   0.66459113  0.58229365  0.39423453
   0.91770636  0.83540888  0.39423453
   0.33333134  0.16666863  0.24975101
   0.16666864  0.33333136  0.74975106
   0.33333136  0.66666865  0.24975101
   0.16666866  0.83333134  0.74975106
   0.83333126  0.16666864  0.24975101
   0.66666865  0.33333137  0.74975106
   0.83333132  0.66666865  0.24975101
   0.66666869  0.83333135  0.74975106
   0.16666722  0.33333279  0.02587489
   0.33333277  0.16666722  0.52587489
   0.33333280  0.16666719  0.97405691
   0.16666720  0.33333282  0.47405691
   0.16666723  0.83333277  0.02587489
   0.33333277  0.66666723  0.52587489
   0.33333280  0.66666720  0.97405691
   0.16666720  0.83333280  0.47405691
   0.66666724  0.33333279  0.02587489
   0.83333270  0.16666721  0.52587489
   0.83333272  0.16666718  0.97405691
   0.66666721  0.33333282  0.47405691
   0.66666726  0.83333276  0.02587489
   0.83333273  0.66666723  0.52587489
   0.83333276  0.66666720  0.97405691
   0.66666724  0.83333279  0.47405691
   0.00000187  0.99999813  0.15409164
   0.99999813  0.00000187  0.65409162
   0.99999821  0.00000179  0.84748974
   0.00000179  0.99999821  0.34748968
   0.00000187  0.49999813  0.15409164
   0.99999813  0.50000186  0.65409162
   0.99999820  0.50000179  0.84748974
   0.00000180  0.49999820  0.34748968
   0.50000187  0.99999813  0.15409164
   0.49999813  0.00000187  0.65409162
   0.49999821  0.00000180  0.84748974
   0.50000179  0.99999820  0.34748968
   0.50000186  0.49999813  0.15409164
   0.49999813  0.50000186  0.65409162
   0.49999820  0.50000179  0.84748974
   0.50000179  0.49999820  0.34748967
   0.16666397  0.33333605  0.93755657
   0.33333603  0.16666396  0.43755657
   0.33333604  0.16666396  0.06249502
   0.16666396  0.33333606  0.56249501
   0.16666398  0.83333603  0.93755657
   0.33333603  0.66666397  0.43755657
   0.33333604  0.66666397  0.06249502
   0.16666397  0.83333603  0.56249501
   0.66666398  0.33333605  0.93755657
   0.83333595  0.16666395  0.43755657
   0.83333595  0.16666395  0.06249502
   0.66666397  0.33333605  0.56249501
   0.66666400  0.83333602  0.93755657
   0.83333599  0.66666396  0.43755657
   0.83333599  0.66666396  0.06249502
   0.66666399  0.83333602  0.56249501
   0.08980192  0.41019807  0.24978048
   0.08981585  0.17958648  0.24978049
   0.32041355  0.41018414  0.24978049
   0.41019807  0.08980191  0.74978041
   0.41018413  0.32041354  0.74978043
   0.17958647  0.08981584  0.74978043
   0.08980190  0.91019808  0.24978048
   0.08981582  0.67958644  0.24978049
   0.32041353  0.91018415  0.24978049
   0.41019807  0.58980189  0.74978041
   0.41018414  0.82041356  0.74978043
   0.17958646  0.58981583  0.74978043
   0.58980191  0.41019808  0.24978048
   0.58981584  0.17958648  0.24978049
   0.82041357  0.41018414  0.24978049
   0.91019809  0.08980191  0.74978041
   0.91018416  0.32041353  0.74978043
   0.67958646  0.08981584  0.74978043
   0.58980189  0.91019809  0.24978048
   0.58981581  0.67958643  0.24978049
   0.82041353  0.91018415  0.24978049
   0.91019810  0.58980190  0.74978041
   0.91018417  0.82041355  0.74978043
   0.67958646  0.58981583  0.74978043
   0.07392974  0.42607025  0.05578013
   0.07392793  0.14785667  0.05577851
   0.35214332  0.42607207  0.05577851
   0.42607024  0.07392975  0.55578012
   0.42607207  0.35214331  0.55577849
   0.14785668  0.07392793  0.55577850
   0.42599392  0.07400607  0.94509640
   0.14800941  0.07400429  0.94509801
   0.42599571  0.35199058  0.94509801
   0.07400606  0.42599393  0.44509640
   0.35199059  0.42599571  0.44509801
   0.07400429  0.14800940  0.44509801
   0.07392973  0.92607023  0.05578013
   0.07392791  0.64785662  0.05577851
   0.35214331  0.92607206  0.05577851
   0.42607026  0.57392974  0.55578012
   0.42607207  0.85214332  0.55577849
   0.14785668  0.57392792  0.55577849
   0.42599394  0.57400606  0.94509640
   0.14800941  0.57400428  0.94509801
   0.42599571  0.85199059  0.94509801
   0.07400605  0.92599391  0.44509640
   0.35199058  0.92599570  0.44509801
   0.07400427  0.64800935  0.44509801
   0.57392972  0.42607025  0.05578013
   0.57392792  0.14785668  0.05577850
   0.85214335  0.42607207  0.05577850
   0.92607031  0.07392976  0.55578012
   0.92607211  0.35214332  0.55577850
   0.64785665  0.07392793  0.55577850
   0.92599399  0.07400608  0.94509640
   0.64800938  0.07400429  0.94509801
   0.92599575  0.35199059  0.94509801
   0.57400604  0.42599393  0.44509640
   0.85199062  0.42599571  0.44509801
   0.57400428  0.14800941  0.44509801
   0.57392971  0.92607025  0.05578013
   0.57392790  0.64785663  0.05577851
   0.85214331  0.92607207  0.05577851
   0.92607028  0.57392974  0.55578012
   0.92607211  0.85214332  0.55577850
   0.64785665  0.57392792  0.55577849
   0.92599395  0.57400606  0.94509640
   0.64800938  0.57400428  0.94509801
   0.92599575  0.85199059  0.94509801
   0.57400604  0.92599392  0.44509640
   0.85199058  0.92599571  0.44509801
   0.57400426  0.64800936  0.44509801
   0.25346813  0.24653187  0.15118595
   0.25347244  0.00694046  0.15119487
   0.49305954  0.24652755  0.15119486
   0.24653187  0.25346814  0.65118592
   0.24652755  0.49305951  0.65119483
   0.00694046  0.25347244  0.65119484
   0.24683293  0.25316708  0.84904725
   0.00633817  0.25317131  0.84903839
   0.24682869  0.49366181  0.84903839
   0.25316708  0.24683293  0.34904721
   0.49366183  0.24682869  0.34903835
   0.25317130  0.00633817  0.34903835
   0.25346812  0.74653185  0.15118595
   0.25347245  0.50694048  0.15119487
   0.49305950  0.74652755  0.15119487
   0.24653190  0.75346812  0.65118592
   0.24652753  0.99305947  0.65119483
   0.00694049  0.75347243  0.65119483
   0.24683295  0.75316706  0.84904725
   0.00633819  0.75317130  0.84903839
   0.24682867  0.99366177  0.84903839
   0.25316706  0.74683291  0.34904721
   0.49366179  0.74682868  0.34903835
   0.25317131  0.50633818  0.34903835
   0.75346810  0.24653187  0.15118595
   0.75347239  0.00694047  0.15119487
   0.99305955  0.24652756  0.15119487
   0.74653192  0.25346814  0.65118591
   0.74652759  0.49305952  0.65119483
   0.50694050  0.25347245  0.65119483
   0.74683298  0.25316708  0.84904726
   0.50633821  0.25317131  0.84903839
   0.74682873  0.49366181  0.84903839
   0.75316704  0.24683293  0.34904721
   0.99366185  0.24682870  0.34903835
   0.75317126  0.00633817  0.34903835
   0.75346806  0.74653186  0.15118595
   0.75347240  0.50694048  0.15119486
   0.99305951  0.74652755  0.15119487
   0.74653193  0.75346812  0.65118592
   0.74652757  0.99305948  0.65119484
   0.50694050  0.75347244  0.65119483
   0.74683299  0.75316707  0.84904725
   0.50633821  0.75317130  0.84903839
   0.74682871  0.99366177  0.84903839
   0.75316700  0.74683292  0.34904721
   0.99366181  0.74682869  0.34903835
   0.75317126  0.50633819  0.34903835
   0.33333037  0.16666959  0.81318700
   0.16666959  0.33333039  0.31318700
   0.16666962  0.33333037  0.18716175
   0.33333035  0.16666961  0.68716173
   0.33333038  0.66666962  0.81318700
   0.16666961  0.83333040  0.31318700
   0.16666963  0.83333038  0.18716175
   0.33333035  0.66666965  0.68716173
   0.83333032  0.16666958  0.81318700
   0.66666963  0.33333039  0.31318700
   0.66666965  0.33333037  0.18716175
   0.83333030  0.16666961  0.68716173
   0.83333036  0.66666963  0.81318700
   0.66666966  0.83333039  0.31318700
   0.66666969  0.83333037  0.18716175
   0.83333034  0.66666965  0.68716173
Direct configuration=     4
   0.99999997  0.00000003  0.00009519
   0.00000003  0.99999997  0.50009519
   0.99999996  0.50000003  0.00009519
   0.00000003  0.49999996  0.50009519
   0.49999997  0.00000003  0.00009519
   0.50000003  0.99999997  0.50009519
   0.49999996  0.50000003  0.00009519
   0.50000003  0.49999996  0.50009519
   0.00000503  0.99999497  0.24641876
   0.99999497  0.00000503  0.74641874
   0.00000503  0.49999497  0.24641876
   0.99999496  0.50000502  0.74641874