Sat Jul 31 14:35:39 MST 2021
 running on   90 total cores
 distrk:  each k-point on   90 cores,    1 groups
 distr:  one band on    9 cores,   10 groups
 using from now: INCAR     
 vasp.5.4.4.18Apr17-6-g9f103f2a35 (build Sep 23 2020 14:43:34) complex          
  
 POSCAR found type information on POSCAR  Al Ca Mg O  Ti
 POSCAR found :  5 types and     256 ions
 scaLAPACK will be used

 ----------------------------------------------------------------------------- 
|                                                                             |
|  ADVICE TO THIS USER RUNNING 'VASP/VAMP'   (HEAR YOUR MASTER'S VOICE ...):  |
|                                                                             |
|      You have a (more or less) 'large supercell' and for larger cells       |
|      it might be more efficient to use real space projection operators      |
|      So try LREAL= Auto  in the INCAR   file.                               |
|      Mind: If you want to do a very accurate calculations keep the          |
|      reciprocal projection scheme          (i.e. LREAL=.FALSE.)             |
|                                                                             |
 ----------------------------------------------------------------------------- 

 LDA part: xc-table for Pade appr. of Perdew
 POSCAR, INCAR and KPOINTS ok, starting setup
 FFT: planning ...
 WAVECAR not read
 entering main loop
       N       E                     dE             d eps       ncg     rms          rms(c)
DAV:   1     0.186506764502E+05    0.18651E+05   -0.47585E+05153630   0.156E+03
DAV:   2     0.189216899319E+04   -0.16759E+05   -0.14185E+05149450   0.449E+02
DAV:   3    -0.178879053248E+04   -0.36810E+04   -0.34527E+04141960   0.209E+02
DAV:   4    -0.211783172569E+04   -0.32904E+03   -0.32073E+03177310   0.696E+01
DAV:   5    -0.213940134681E+04   -0.21570E+02   -0.21453E+02219490   0.181E+01    0.133E+02
DAV:   6    -0.162577514371E+04    0.51363E+03   -0.12924E+03204440   0.520E+01    0.531E+01
DAV:   7    -0.166624561600E+04   -0.40470E+02   -0.25808E+02182060   0.217E+01    0.450E+01
DAV:   8    -0.164804723551E+04    0.18198E+02   -0.35545E+01170310   0.112E+01    0.365E+01
DAV:   9    -0.172474464967E+04   -0.76697E+02   -0.53019E+01187090   0.149E+01    0.304E+01
DAV:  10    -0.177474634450E+04   -0.50002E+02   -0.39853E+01175650   0.918E+00    0.205E+01
DAV:  11    -0.182507530278E+04   -0.50329E+02   -0.42718E+01176930   0.736E+00    0.143E+01
DAV:  12    -0.188948042970E+04   -0.64405E+02   -0.97070E+01158300   0.874E+00    0.114E+01
DAV:  13    -0.189035147020E+04   -0.87104E+00   -0.14418E+01176290   0.504E+00    0.620E+00
DAV:  14    -0.189107806696E+04   -0.72660E+00   -0.39351E+00175110   0.251E+00    0.351E+00
DAV:  15    -0.189127370081E+04   -0.19563E+00   -0.65724E-01182300   0.140E+00    0.239E+00
DAV:  16    -0.189124201493E+04    0.31686E-01   -0.50011E-01196610   0.126E+00    0.111E+00
DAV:  17    -0.189124749329E+04   -0.54784E-02   -0.10244E-01178060   0.407E-01    0.849E-01
DAV:  18    -0.189124616835E+04    0.13249E-02   -0.23926E-02193760   0.199E-01    0.490E-01
DAV:  19    -0.189124613561E+04    0.32734E-04   -0.16083E-02162920   0.185E-01    0.273E-01
DAV:  20    -0.189124440770E+04    0.17279E-02   -0.49715E-03186820   0.138E-01    0.201E-01
DAV:  21    -0.189124383860E+04    0.56910E-03   -0.64135E-03170020   0.106E-01    0.749E-02
DAV:  22    -0.189124391565E+04   -0.77050E-04   -0.10394E-03195980   0.438E-02    0.581E-02
DAV:  23    -0.189124385204E+04    0.63603E-04   -0.28268E-04175420   0.249E-02    0.310E-02
DAV:  24    -0.189124382347E+04    0.28579E-04   -0.93865E-05185840   0.181E-02    0.235E-02
DAV:  25    -0.189124380488E+04    0.18583E-04   -0.44343E-05198050   0.136E-02    0.815E-03
DAV:  26    -0.189124380694E+04   -0.20614E-05   -0.36297E-05178010   0.791E-03    0.575E-03
DAV:  27    -0.189124380632E+04    0.62233E-06   -0.36089E-06173320   0.294E-03    0.467E-03
DAV:  28    -0.189124380590E+04    0.42256E-06   -0.84648E-07161690   0.120E-03    0.261E-03
DAV:  29    -0.189124380569E+04    0.20594E-06   -0.62778E-07146280   0.101E-03    0.708E-04
DAV:  30    -0.189124380576E+04   -0.71508E-07   -0.81739E-08 91290   0.465E-04
   1 F= -.18912438E+04 E0= -.18912435E+04  d E =-.189124E+04  mag=    -0.0001
 curvature:   0.00 expect dE= 0.000E+00 dE for cont linesearch  0.000E+00
 trial: gam= 0.00000 g(F)=  0.114E+03 g(S)=  0.000E+00 ort = 0.000E+00 (trialstep = 0.100E+01)
 search vector abs. value=  0.114E+03
 bond charge predicted
       N       E                     dE             d eps       ncg     rms          rms(c)
DAV:   1    -0.186667254628E+04    0.24571E+02   -0.16091E+04140470   0.137E+02    0.237E+01
DAV:   2    -0.191966153654E+04   -0.52989E+02   -0.79582E+02163870   0.344E+01    0.207E+01
DAV:   3    -0.191087499811E+04    0.87865E+01   -0.56485E+01185330   0.122E+01    0.157E+01
DAV:   4    -0.190340093401E+04    0.74741E+01   -0.86482E+00189240   0.518E+00    0.110E+01
DAV:   5    -0.189315806524E+04    0.10243E+02   -0.33653E+01183020   0.821E+00    0.718E+00
DAV:   6    -0.189265067993E+04    0.50739E+00   -0.96542E+00213870   0.396E+00    0.537E+00
DAV:   7    -0.189223202168E+04    0.41866E+00   -0.76342E+00186360   0.347E+00    0.356E+00
DAV:   8    -0.189179970850E+04    0.43231E+00   -0.11455E+00207350   0.187E+00    0.240E+00
DAV:   9    -0.189170243822E+04    0.97270E-01   -0.42374E-01200930   0.816E-01    0.144E+00
DAV:  10    -0.189169834577E+04    0.40925E-02   -0.63340E-01182810   0.817E-01    0.133E+00
DAV:  11    -0.189166098897E+04    0.37357E-01   -0.16262E-01170090   0.528E-01    0.312E-01
DAV:  12    -0.189166380890E+04   -0.28199E-02   -0.47362E-02200230   0.243E-01    0.205E-01
DAV:  13    -0.189166319674E+04    0.61216E-03   -0.41783E-03191780   0.103E-01    0.138E-01
DAV:  14    -0.189166304508E+04    0.15166E-03   -0.19568E-03199370   0.561E-02    0.627E-02
DAV:  15    -0.189166302916E+04    0.15920E-04   -0.60281E-04194780   0.313E-02    0.194E-02
DAV:  16    -0.189166303863E+04   -0.94784E-05   -0.59972E-05194090   0.114E-02    0.186E-02
DAV:  17    -0.189166303300E+04    0.56355E-05   -0.32126E-05176600   0.773E-03    0.872E-03
DAV:  18    -0.189166303285E+04    0.15265E-06   -0.56241E-06191350   0.300E-03    0.766E-03
DAV:  19    -0.189166303186E+04    0.98406E-06   -0.21278E-06182610   0.223E-03    0.356E-03
DAV:  20    -0.189166303195E+04   -0.88359E-07   -0.10195E-06161240   0.123E-03    0.155E-03
DAV:  21    -0.189166303191E+04    0.43132E-07   -0.80706E-08 88530   0.426E-04
   2 F= -.18916630E+04 E0= -.18916630E+04  d E =-.419226E+00  mag=    -0.0000
 trial-energy change:   -0.419226  1 .order    3.293711 -113.725490  120.312912
 step:   0.5097(harm=  0.4859)  dis= 0.12891  next Energy= -1920.719276 (dE=-0.295E+02)
 bond charge predicted
       N       E                     dE             d eps       ncg     rms          rms(c)
DAV:   1    -0.192103318009E+04   -0.29370E+02   -0.39336E+03142740   0.712E+01    0.110E+01
DAV:   2    -0.192744154724E+04   -0.64084E+01   -0.13913E+02194150   0.144E+01    0.801E+00
DAV:   3    -0.192476714140E+04    0.26744E+01   -0.71983E+00201290   0.464E+00    0.573E+00
DAV:   4    -0.192207650481E+04    0.26906E+01   -0.39220E+00239980   0.488E+00    0.331E+00
DAV:   5    -0.192131284558E+04    0.76366E+00   -0.37444E+00200590   0.349E+00    0.205E+00
DAV:   6    -0.192121609052E+04    0.96755E-01   -0.12792E+00203300   0.168E+00    0.141E+00
DAV:   7    -0.192113911642E+04    0.76974E-01   -0.24308E-01192650   0.712E-01    0.991E-01
DAV:   8    -0.192109377337E+04    0.45343E-01   -0.71093E-02238870   0.703E-01    0.452E-01
DAV:   9    -0.192109076360E+04    0.30098E-02   -0.10973E-01209400   0.579E-01    0.402E-01
DAV:  10    -0.192108884387E+04    0.19197E-02   -0.29560E-02181760   0.274E-01    0.168E-01
DAV:  11    -0.192108931126E+04   -0.46739E-03   -0.99432E-03196470   0.113E-01    0.854E-02
DAV:  12    -0.192108926694E+04    0.44318E-04   -0.20431E-03204290   0.772E-02    0.683E-02
DAV:  13    -0.192108927859E+04   -0.11652E-04   -0.55498E-04182880   0.277E-02    0.730E-02
DAV:  14    -0.192108919617E+04    0.82420E-04   -0.13170E-04207100   0.208E-02    0.369E-02
DAV:  15    -0.192108918405E+04    0.12116E-04   -0.10272E-04187340   0.128E-02    0.138E-02
DAV:  16    -0.192108918231E+04    0.17414E-05   -0.20937E-05207530   0.614E-03    0.438E-03
DAV:  17    -0.192108918228E+04    0.28624E-07   -0.38583E-06192870   0.239E-03    0.174E-03
DAV:  18    -0.192108918237E+04   -0.84518E-07   -0.15117E-06180880   0.164E-03    0.324E-03
DAV:  19    -0.192108918234E+04    0.29861E-07   -0.34522E-07126540   0.109E-03
   3 F= -.19210892E+04 E0= -.19210892E+04  d E =-.298454E+02  mag=    -0.0000
 curvature:  -0.24 expect dE=-0.122E+01 dE for cont linesearch -0.657E-04
 trial: gam= 0.04564 g(F)=  0.501E+01 g(S)=  0.000E+00 ort =-0.176E+00 (trialstep = 0.902E+00)
 search vector abs. value=  0.524E+01
 bond charge predicted
       N       E                     dE             d eps       ncg     rms          rms(c)
DAV:   1    -0.192040131672E+04    0.68787E+00   -0.10177E+03142010   0.371E+01    0.544E+00
DAV:   2    -0.192223995042E+04   -0.18386E+01   -0.28747E+01168100   0.818E+00    0.446E+00
DAV:   3    -0.192202385550E+04    0.21609E+00   -0.26193E+00161130   0.325E+00    0.247E+00
DAV:   4    -0.192192977276E+04    0.94083E-01   -0.36173E-01186810   0.110E+00    0.198E+00
DAV:   5    -0.192183316515E+04    0.96608E-01   -0.37330E-01183370   0.878E-01    0.609E-01
DAV:   6    -0.192183344847E+04   -0.28332E-03   -0.89719E-02193580   0.423E-01    0.393E-01
DAV:   7    -0.192183289099E+04    0.55748E-03   -0.31693E-02177320   0.256E-01    0.246E-01
DAV:   8    -0.192183189831E+04    0.99267E-03   -0.40275E-03187940   0.110E-01    0.115E-01
DAV:   9    -0.192183162066E+04    0.27765E-03   -0.16821E-03170320   0.617E-02    0.461E-02
DAV:  10    -0.192183162479E+04   -0.41325E-05   -0.48974E-04203040   0.317E-02    0.520E-02
DAV:  11    -0.192183158793E+04    0.36863E-04   -0.10236E-04183100   0.170E-02    0.302E-02
DAV:  12    -0.192183157866E+04    0.92646E-05   -0.72589E-05202710   0.111E-02    0.972E-03
DAV:  13    -0.192183157775E+04    0.91392E-06   -0.10767E-05184240   0.622E-03    0.446E-03
DAV:  14    -0.192183157872E+04   -0.96974E-06   -0.50153E-06187260   0.410E-03    0.560E-03
DAV:  15    -0.192183157889E+04   -0.17491E-06   -0.17083E-06203760   0.195E-03    0.260E-03
DAV:  16    -0.192183157882E+04    0.72207E-07   -0.31466E-07131440   0.758E-04
   4 F= -.19218316E+04 E0= -.19218316E+04  d E =-.742396E+00  mag=    -0.0000
 trial-energy change:   -0.742396  1 .order   -0.796316   -4.515572    2.922940
 step:   0.5381(harm=  0.5475)  dis= 0.03051  next Energy= -1922.424696 (dE=-0.134E+01)
 bond charge predicted
       N       E                     dE             d eps       ncg     rms          rms(c)
DAV:   1    -0.192220401345E+04   -0.37243E+00   -0.16611E+02144090   0.150E+01    0.225E+00
DAV:   2    -0.192251235197E+04   -0.30834E+00   -0.45984E+00167580   0.337E+00    0.197E+00
DAV:   3    -0.192245844429E+04    0.53908E-01   -0.41668E-01163870   0.133E+00    0.104E+00
DAV:   4    -0.192244132514E+04    0.17119E-01   -0.59520E-02179100   0.415E-01    0.823E-01
DAV:   5    -0.192242445684E+04    0.16868E-01   -0.72913E-02175550   0.373E-01    0.253E-01
DAV:   6    -0.192242463914E+04   -0.18229E-03   -0.16552E-02198160   0.181E-01    0.169E-01
DAV:   7    -0.192242461801E+04    0.21122E-04   -0.68533E-03175660   0.118E-01    0.120E-01
DAV:   8    -0.192242439303E+04    0.22498E-03   -0.10705E-03179260   0.562E-02    0.512E-02
DAV:   9    -0.192242437218E+04    0.20854E-04   -0.45420E-04173430   0.300E-02    0.232E-02
DAV:  10    -0.192242437821E+04   -0.60328E-05   -0.93185E-05216310   0.148E-02    0.274E-02
DAV:  11    -0.192242437051E+04    0.76979E-05   -0.21496E-05178460   0.748E-03    0.176E-02
DAV:  12    -0.192242436734E+04    0.31753E-05   -0.20059E-05196330   0.624E-03    0.644E-03
DAV:  13    -0.192242436685E+04    0.49340E-06   -0.48364E-06195130   0.342E-03    0.225E-03
DAV:  14    -0.192242436629E+04    0.55705E-06   -0.12307E-06194880   0.191E-03    0.249E-03
DAV:  15    -0.192242436602E+04    0.26920E-06   -0.45448E-07146920   0.115E-03    0.122E-03
DAV:  16    -0.192242436600E+04    0.21566E-07   -0.11442E-07 92670   0.556E-04
   5 F= -.19224244E+04 E0= -.19224244E+04  d E =-.133518E+01  mag=    -0.0000
 curvature:  -0.29 expect dE=-0.123E+00 dE for cont linesearch -0.375E-06
 trial: gam= 0.07972 g(F)=  0.432E+00 g(S)=  0.000E+00 ort = 0.262E-02 (trialstep = 0.829E+00)
 search vector abs. value=  0.465E+00
 bond charge predicted
       N       E                     dE             d eps       ncg     rms          rms(c)
DAV:   1    -0.192260204111E+04   -0.17768E+00   -0.24979E+01143580   0.573E+00    0.956E-01
DAV:   2    -0.192263695973E+04   -0.34919E-01   -0.67599E-01179960   0.103E+00    0.686E-01
DAV:   3    -0.192262741619E+04    0.95435E-02   -0.31384E-02206590   0.241E-01    0.490E-01
DAV:   4    -0.192261929016E+04    0.81260E-02   -0.19860E-02164360   0.183E-01    0.193E-01
DAV:   5    -0.192261816907E+04    0.11211E-02   -0.33575E-03172430   0.120E-01    0.139E-01
DAV:   6    -0.192261798171E+04    0.18736E-03   -0.25382E-03191780   0.805E-02    0.705E-02
DAV:   7    -0.192261796099E+04    0.20724E-04   -0.95294E-04224760   0.499E-02    0.456E-02
DAV:   8    -0.192261792545E+04    0.35534E-04   -0.15755E-04183640   0.195E-02    0.241E-02
DAV:   9    -0.192261792206E+04    0.33991E-05   -0.13234E-04188810   0.158E-02    0.157E-02
DAV:  10    -0.192261791934E+04    0.27144E-05   -0.21075E-05177930   0.681E-03    0.120E-02
DAV:  11    -0.192261791663E+04    0.27078E-05   -0.16430E-05184300   0.666E-03    0.284E-03
DAV:  12    -0.192261791688E+04   -0.24372E-06   -0.51396E-06184000   0.286E-03    0.270E-03
DAV:  13    -0.192261791658E+04    0.29732E-06   -0.28952E-07131170   0.127E-03    0.155E-03
DAV:  14    -0.192261791648E+04    0.10428E-06   -0.30885E-07122530   0.815E-04    0.540E-04
DAV:  15    -0.192261791647E+04    0.33760E-08   -0.87088E-08 89260   0.513E-04
   6 F= -.19226179E+04 E0= -.19226179E+04  d E =-.193550E+00  mag=    -0.0000
 trial-energy change:   -0.193550  1 .order   -0.194173   -0.358001   -0.030346
 step:   0.9069(harm=  0.9060)  dis= 0.02104  next Energy= -1922.619339 (dE=-0.195E+00)
 bond charge predicted
       N       E                     dE             d eps       ncg     rms          rms(c)
DAV:   1    -0.192261921708E+04   -0.13006E-02   -0.21980E-01144320   0.537E-01    0.897E-02
DAV:   2    -0.192261952384E+04   -0.30676E-03   -0.59367E-03180510   0.963E-02    0.647E-02
DAV:   3    -0.192261944015E+04    0.83692E-04   -0.27374E-04205500   0.229E-02    0.463E-02
DAV:   4    -0.192261937134E+04    0.68803E-04   -0.16884E-04165350   0.180E-02    0.196E-02
DAV:   5    -0.192261935906E+04    0.12278E-04   -0.40740E-05164860   0.130E-02    0.137E-02
DAV:   6    -0.192261935701E+04    0.20501E-05   -0.19109E-05186500   0.733E-03    0.808E-03
DAV:   7    -0.192261935642E+04    0.59821E-06   -0.12696E-05221930   0.551E-03    0.424E-03
DAV:   8    -0.192261935620E+04    0.21333E-06   -0.15150E-06189810   0.183E-03    0.247E-03
DAV:   9    -0.192261935614E+04    0.60914E-07   -0.11252E-06155120   0.143E-03    0.135E-03
DAV:  10    -0.192261935613E+04    0.11860E-07   -0.17117E-07 97920   0.717E-04
   7 F= -.19226194E+04 E0= -.19226194E+04  d E =-.194990E+00  mag=    -0.0000
 curvature:  -0.49 expect dE=-0.487E-01 dE for cont linesearch -0.160E-08
 trial: gam= 0.22430 g(F)=  0.997E-01 g(S)=  0.000E+00 ort = 0.391E-04 (trialstep = 0.845E+00)
 search vector abs. value=  0.123E+00
 bond charge predicted
       N       E                     dE             d eps       ncg     rms          rms(c)
DAV:   1    -0.192266957969E+04   -0.50224E-01   -0.71790E+00142380   0.307E+00    0.388E-01
DAV:   2    -0.192267927038E+04   -0.96907E-02   -0.15104E-01171800   0.532E-01    0.298E-01
DAV:   3    -0.192267779895E+04    0.14714E-02   -0.14264E-02180400   0.212E-01    0.187E-01
DAV:   4    -0.192267669573E+04    0.11032E-02   -0.35434E-03225630   0.122E-01    0.131E-01
DAV:   5    -0.192267573518E+04    0.96055E-03   -0.13896E-03189320   0.770E-02    0.558E-02
DAV:   6    -0.192267535799E+04    0.37720E-03   -0.11633E-03225280   0.879E-02    0.257E-02
DAV:   7    -0.192267542071E+04   -0.62725E-04   -0.10442E-03184540   0.406E-02    0.375E-02
DAV:   8    -0.192267539422E+04    0.26494E-04   -0.98673E-05197500   0.156E-02    0.119E-02
DAV:   9    -0.192267539859E+04   -0.43737E-05   -0.90227E-05179840   0.109E-02    0.210E-02
DAV:  10    -0.192267539115E+04    0.74451E-05   -0.19704E-05206180   0.742E-03    0.945E-03
DAV:  11    -0.192267538989E+04    0.12551E-05   -0.12994E-05186980   0.521E-03    0.238E-03
DAV:  12    -0.192267539015E+04   -0.25966E-06   -0.17469E-06176010   0.192E-03    0.218E-03
DAV:  13    -0.192267539006E+04    0.86977E-07   -0.20816E-07111510   0.862E-04
   8 F= -.19226754E+04 E0= -.19226754E+04  d E =-.560339E-01  mag=    -0.0000
 trial-energy change:   -0.056034  1 .order   -0.055997   -0.084214   -0.027779
 step:   1.2605(harm=  1.2605)  dis= 0.01997  next Energy= -1922.682189 (dE=-0.628E-01)
 bond charge predicted
       N       E                     dE             d eps       ncg     rms          rms(c)
DAV:   1    -0.192268082119E+04   -0.54310E-02   -0.17386E+00142320   0.151E+00    0.192E-01
DAV:   2    -0.192268318468E+04   -0.23635E-02   -0.36705E-02171720   0.262E-01    0.147E-01
DAV:   3    -0.192268282755E+04    0.35713E-03   -0.34699E-03180480   0.104E-01    0.916E-02
DAV:   4    -0.192268256236E+04    0.26518E-03   -0.87001E-04226770   0.603E-02    0.641E-02
DAV:   5    -0.192268233326E+04    0.22911E-03   -0.33567E-04190320   0.377E-02    0.275E-02
DAV:   6    -0.192268224236E+04    0.90892E-04   -0.27665E-04225030   0.432E-02    0.126E-02
DAV:   7    -0.192268225789E+04   -0.15528E-04   -0.25203E-04185590   0.200E-02    0.183E-02
DAV:   8    -0.192268225205E+04    0.58459E-05   -0.21407E-05193490   0.741E-03    0.662E-03
DAV:   9    -0.192268225373E+04   -0.16834E-05   -0.26513E-05181150   0.574E-03    0.106E-02
DAV:  10    -0.192268225187E+04    0.18617E-05   -0.46497E-06204060   0.364E-03    0.498E-03
DAV:  11    -0.192268225138E+04    0.49220E-06   -0.37600E-06181160   0.289E-03    0.129E-03
DAV:  12    -0.192268225150E+04   -0.12456E-06   -0.60710E-07137020   0.101E-03    0.117E-03
DAV:  13    -0.192268225147E+04    0.27649E-07   -0.57184E-08 91820   0.447E-04
   9 F= -.19226823E+04 E0= -.19226823E+04  d E =-.628953E-01  mag=    -0.0000
 curvature:  -0.78 expect dE=-0.516E-01 dE for cont linesearch -0.693E-07
 trial: gam= 0.66583 g(F)=  0.663E-01 g(S)=  0.000E+00 ort =-0.105E-03 (trialstep = 0.928E+00)
 search vector abs. value=  0.121E+00
 bond charge predicted
       N       E                     dE             d eps       ncg     rms          rms(c)
DAV:   1    -0.192270398996E+04   -0.21738E-01   -0.43309E+00139340   0.241E+00    0.450E-01
DAV:   2    -0.192270768014E+04   -0.36902E-02   -0.11542E-01169680   0.550E-01    0.351E-01
DAV:   3    -0.192270579243E+04    0.18877E-02   -0.16398E-02164320   0.243E-01    0.216E-01
DAV:   4    -0.192270438729E+04    0.14051E-02   -0.43913E-03222360   0.120E-01    0.140E-01
DAV:   5    -0.192270338638E+04    0.10009E-02   -0.18292E-03183470   0.768E-02    0.501E-02
DAV:   6    -0.192270322370E+04    0.16267E-03   -0.82584E-04205010   0.628E-02    0.291E-02
DAV:   7    -0.192270325648E+04   -0.32775E-04   -0.60409E-04180280   0.301E-02    0.330E-02
DAV:   8    -0.192270323756E+04    0.18924E-04   -0.70325E-05189670   0.117E-02    0.159E-02
DAV:   9    -0.192270323915E+04   -0.15982E-05   -0.10237E-04176990   0.121E-02    0.251E-02
DAV:  10    -0.192270322957E+04    0.95819E-05   -0.14366E-05195800   0.786E-03    0.168E-02
DAV:  11    -0.192270322652E+04    0.30505E-05   -0.27222E-05175910   0.690E-03    0.476E-03
DAV:  12    -0.192270322663E+04   -0.11089E-06   -0.30042E-06186130   0.265E-03    0.303E-03
DAV:  13    -0.192270322694E+04   -0.30291E-06   -0.20865E-06177580   0.241E-03    0.274E-03
DAV:  14    -0.192270322685E+04    0.84561E-07   -0.50780E-07141190   0.111E-03
  10 F= -.19227032E+04 E0= -.19227032E+04  d E =-.209754E-01  mag=    -0.0000
 trial-energy change:   -0.020975  1 .order   -0.020948   -0.061422    0.019526
 step:   0.7041(harm=  0.7041)  dis= 0.01102  next Energy= -1922.705554 (dE=-0.233E-01)
 bond charge predicted
       N       E                     dE             d eps       ncg     rms          rms(c)
DAV:   1    -0.192270560493E+04   -0.23780E-02   -0.25200E-01140200   0.583E-01    0.108E-01
DAV:   2    -0.192270582965E+04   -0.22472E-03   -0.67123E-03170740   0.132E-01    0.848E-02
DAV:   3    -0.192270571943E+04    0.11022E-03   -0.95972E-04165480   0.584E-02    0.525E-02
DAV:   4    -0.192270564036E+04    0.79065E-04   -0.25391E-04220830   0.287E-02    0.341E-02
DAV:   5    -0.192270558300E+04    0.57361E-04   -0.11004E-04183660   0.187E-02    0.122E-02
DAV:   6    -0.192270557543E+04    0.75672E-05   -0.48470E-05204870   0.152E-02    0.717E-03
DAV:   7    -0.192270557811E+04   -0.26802E-05   -0.36232E-05180230   0.738E-03    0.805E-03
DAV:   8    -0.192270557731E+04    0.80734E-06   -0.42707E-06187480   0.288E-03    0.381E-03
DAV:   9    -0.192270557825E+04   -0.94413E-06   -0.59265E-06175320   0.291E-03    0.602E-03
DAV:  10    -0.192270557774E+04    0.51213E-06   -0.80583E-07172970   0.190E-03    0.403E-03
DAV:  11    -0.192270557752E+04    0.21388E-06   -0.16500E-06163280   0.171E-03    0.113E-03
DAV:  12    -0.192270557752E+04    0.42492E-08   -0.15442E-07 99520   0.670E-04
  11 F= -.19227056E+04 E0= -.19227056E+04  d E =-.233260E-01  mag=    -0.0000
 curvature:  -0.64 expect dE=-0.682E-02 dE for cont linesearch -0.266E-07
 trial: gam= 0.15431 g(F)=  0.106E-01 g(S)=  0.000E+00 ort = 0.708E-04 (trialstep = 0.883E+00)
 search vector abs. value=  0.135E-01
 bond charge predicted
       N       E                     dE             d eps       ncg     rms          rms(c)
DAV:   1    -0.192270623747E+04   -0.65995E-03   -0.19572E+00140160   0.164E+00    0.230E-01
DAV:   2    -0.192271085973E+04   -0.46223E-02   -0.57254E-02171020   0.336E-01    0.166E-01
DAV:   3    -0.192271059127E+04    0.26846E-03   -0.40325E-03164580   0.122E-01    0.999E-02
DAV:   4    -0.192271046016E+04    0.13111E-03   -0.61624E-04188710   0.424E-02    0.769E-02
DAV:   5    -0.192271035038E+04    0.10979E-03   -0.82113E-04169380   0.416E-02    0.286E-02
DAV:   6    -0.192271035422E+04   -0.38491E-05   -0.17413E-04175460   0.176E-02    0.267E-02
DAV:   7    -0.192271034596E+04    0.82666E-05   -0.38647E-05194990   0.972E-03    0.111E-02
DAV:   8    -0.192271034760E+04   -0.16462E-05   -0.30527E-05189150   0.750E-03    0.727E-03
DAV:   9    -0.192271034794E+04   -0.33599E-06   -0.48175E-06168240   0.337E-03    0.423E-03
DAV:  10    -0.192271034785E+04    0.88912E-07   -0.32471E-06179990   0.248E-03    0.240E-03
DAV:  11    -0.192271034787E+04   -0.18437E-07   -0.53028E-07141840   0.118E-03
  12 F= -.19227103E+04 E0= -.19227103E+04  d E =-.477035E-02  mag=    -0.0000
 trial-energy change:   -0.004770  1 .order   -0.004717   -0.009394   -0.000040
 step:   0.8868(harm=  0.8869)  dis= 0.00278  next Energy= -1922.710348 (dE=-0.477E-02)
 bond charge predicted
       N       E                     dE             d eps       ncg     rms          rms(c)
DAV:   1    -0.192271034795E+04   -0.99171E-07   -0.33856E-05144480   0.690E-03    0.127E-03
DAV:   2    -0.192271034814E+04   -0.19395E-06   -0.13221E-06177230   0.162E-03    0.856E-04
DAV:   3    -0.192271034813E+04    0.13999E-07   -0.74059E-08 85220   0.573E-04
  13 F= -.19227103E+04 E0= -.19227103E+04  d E =-.477061E-02  mag=    -0.0000
 curvature:  -0.56 expect dE=-0.164E-02 dE for cont linesearch -0.310E-10
 trial: gam= 0.27432 g(F)=  0.292E-02 g(S)=  0.000E+00 ort = 0.862E-06 (trialstep = 0.884E+00)
 search vector abs. value=  0.393E-02
 bond charge predicted
       N       E                     dE             d eps       ncg     rms          rms(c)
DAV:   1    -0.192271049057E+04   -0.14242E-03   -0.75649E-01140320   0.100E+00    0.124E-01
DAV:   2    -0.192271218623E+04   -0.16957E-02   -0.19132E-02195800   0.170E-01    0.771E-02
DAV:   3    -0.192271206981E+04    0.11642E-03   -0.45900E-04188880   0.374E-02    0.512E-02
DAV:   4    -0.192271199208E+04    0.77729E-04   -0.15327E-04211300   0.275E-02    0.300E-02
DAV:   5    -0.192271196405E+04    0.28030E-04   -0.14852E-04184000   0.203E-02    0.107E-02
DAV:   6    -0.192271196579E+04   -0.17419E-05   -0.42308E-05185280   0.886E-03    0.102E-02
DAV:   7    -0.192271196458E+04    0.12162E-05   -0.62551E-06197510   0.321E-03    0.551E-03
DAV:   8    -0.192271196399E+04    0.58672E-06   -0.90197E-07178200   0.181E-03    0.228E-03
DAV:   9    -0.192271196388E+04    0.10732E-06   -0.73013E-07156590   0.239E-03    0.699E-04
DAV:  10    -0.192271196397E+04   -0.81491E-07   -0.74671E-07167360   0.109E-03
  14 F= -.19227120E+04 E0= -.19227120E+04  d E =-.161583E-02  mag=    -0.0000
 trial-energy change:   -0.001616  1 .order   -0.001619   -0.002578   -0.000660
 step:   1.1883(harm=  1.1883)  dis= 0.00237  next Energy= -1922.712081 (dE=-0.173E-02)
 bond charge predicted
       N       E                     dE             d eps       ncg     rms          rms(c)
DAV:   1    -0.192271190054E+04    0.63340E-04   -0.89747E-02140760   0.346E-01    0.425E-02
DAV:   2    -0.192271210257E+04   -0.20202E-03   -0.22732E-03195820   0.585E-02    0.267E-02
DAV:   3    -0.192271208846E+04    0.14106E-04   -0.54727E-05189790   0.129E-02    0.178E-02
DAV:   4    -0.192271207952E+04    0.89448E-05   -0.18522E-05211010   0.956E-03    0.104E-02
DAV:   5    -0.192271207616E+04    0.33622E-05   -0.17868E-05182770   0.704E-03    0.377E-03
DAV:   6    -0.192271207640E+04   -0.24971E-06   -0.51131E-06183840   0.309E-03    0.359E-03
DAV:   7    -0.192271207627E+04    0.12995E-06   -0.77648E-07168020   0.114E-03    0.188E-03
DAV:   8    -0.192271207628E+04   -0.65338E-08   -0.96606E-08 96380   0.660E-04
  15 F= -.19227121E+04 E0= -.19227121E+04  d E =-.172815E-02  mag=    -0.0000
 curvature:  -0.80 expect dE=-0.720E-03 dE for cont linesearch -0.104E-07
 trial: gam= 0.30950 g(F)=  0.899E-03 g(S)=  0.000E+00 ort =-0.713E-05 (trialstep = 0.945E+00)
 search vector abs. value=  0.127E-02
 bond charge predicted
       N       E                     dE             d eps       ncg     rms          rms(c)
DAV:   1    -0.192271206195E+04    0.14320E-04   -0.20366E-01143260   0.527E-01    0.710E-02
DAV:   2    -0.192271252715E+04   -0.46520E-03   -0.57362E-03197720   0.101E-01    0.457E-02
DAV:   3    -0.192271249992E+04    0.27230E-04   -0.24266E-04176410   0.276E-02    0.306E-02
DAV:   4    -0.192271248146E+04    0.18464E-04   -0.34214E-05174610   0.121E-02    0.209E-02
DAV:   5    -0.192271246643E+04    0.15025E-04   -0.63049E-05166870   0.117E-02    0.662E-03
DAV:   6    -0.192271246635E+04    0.83819E-07   -0.14341E-05198730   0.567E-03    0.583E-03
DAV:   7    -0.192271246550E+04    0.85213E-06   -0.58636E-06203240   0.432E-03    0.313E-03
DAV:   8    -0.192271246537E+04    0.12375E-06   -0.15605E-06172130   0.171E-03    0.271E-03
DAV:   9    -0.192271246510E+04    0.26717E-06   -0.33842E-07126030   0.809E-04    0.124E-03
DAV:  10    -0.192271246498E+04    0.12490E-06   -0.18763E-07 98610   0.574E-04    0.750E-04
DAV:  11    -0.192271246495E+04    0.25713E-07   -0.34885E-08 86030   0.488E-04
  16 F= -.19227125E+04 E0= -.19227125E+04  d E =-.388673E-03  mag=    -0.0000
 trial-energy change:   -0.000389  1 .order   -0.000389   -0.000847    0.000069
 step:   0.8738(harm=  0.8738)  dis= 0.00052  next Energy= -1922.712468 (dE=-0.392E-03)
 bond charge predicted
       N       E                     dE             d eps       ncg     rms          rms(c)
DAV:   1    -0.192271246466E+04    0.32157E-06   -0.11455E-03142760   0.395E-02    0.533E-03
DAV:   2    -0.192271246758E+04   -0.29235E-05   -0.32030E-05197830   0.758E-03    0.340E-03
DAV:   3    -0.192271246741E+04    0.17330E-06   -0.13567E-06171020   0.207E-03    0.226E-03
DAV:   4    -0.192271246741E+04    0.16589E-08   -0.15623E-07105040   0.927E-04
  17 F= -.19227125E+04 E0= -.19227125E+04  d E =-.391125E-03  mag=    -0.0000
 curvature:  -0.62 expect dE=-0.173E-03 dE for cont linesearch -0.455E-07
 trial: gam= 0.31442 g(F)=  0.280E-03 g(S)=  0.000E+00 ort =-0.967E-05 (trialstep = 0.931E+00)
 search vector abs. value=  0.399E-03
 bond charge predicted
       N       E                     dE             d eps       ncg     rms          rms(c)
DAV:   1    -0.192271246660E+04    0.80376E-06   -0.74754E-02144230   0.321E-01    0.377E-02
DAV:   2    -0.192271263463E+04   -0.16803E-03   -0.20134E-03199850   0.601E-02    0.288E-02
DAV:   3    -0.192271261693E+04    0.17704E-04   -0.48351E-05185640   0.134E-02    0.197E-02
DAV:   4    -0.192271260571E+04    0.11221E-04   -0.21936E-05229900   0.104E-02    0.130E-02
DAV:   5    -0.192271259721E+04    0.84919E-05   -0.19195E-05199450   0.951E-03    0.404E-03
DAV:   6    -0.192271259756E+04   -0.34853E-06   -0.11698E-05198000   0.487E-03    0.415E-03
DAV:   7    -0.192271259735E+04    0.21220E-06   -0.18564E-06186670   0.182E-03    0.262E-03
DAV:   8    -0.192271259720E+04    0.14502E-06   -0.24196E-07127050   0.142E-03    0.154E-03
DAV:   9    -0.192271259728E+04   -0.70999E-07   -0.66104E-07157670   0.142E-03
  18 F= -.19227126E+04 E0= -.19227126E+04  d E =-.129869E-03  mag=    -0.0000
 trial-energy change:   -0.000130  1 .order   -0.000134   -0.000257   -0.000011
 step:   0.9757(harm=  0.9709)  dis= 0.00048  next Energy= -1922.712598 (dE=-0.130E-03)
 bond charge predicted
       N       E                     dE             d eps       ncg     rms          rms(c)
DAV:   1    -0.192271259724E+04   -0.37107E-07   -0.17675E-04145480   0.157E-02    0.211E-03
DAV:   2    -0.192271259768E+04   -0.43516E-06   -0.51558E-06199450   0.304E-03    0.142E-03
DAV:   3    -0.192271259761E+04    0.66910E-07   -0.12408E-07 98060   0.747E-04
  19 F= -.19227126E+04 E0= -.19227126E+04  d E =-.130204E-03  mag=     0.0000
 curvature:  -0.69 expect dE=-0.119E-03 dE for cont linesearch -0.174E-07
 trial: gam= 0.61394 g(F)=  0.173E-03 g(S)=  0.000E+00 ort = 0.317E-05 (trialstep = 0.940E+00)
 search vector abs. value=  0.327E-03
 bond charge predicted
       N       E                     dE             d eps       ncg     rms          rms(c)
DAV:   1    -0.192271254973E+04    0.47948E-04   -0.60501E-02144940   0.289E-01    0.374E-02
DAV:   2    -0.192271269364E+04   -0.14391E-03   -0.16891E-03198340   0.556E-02    0.244E-02
DAV:   3    -0.192271268494E+04    0.87004E-05   -0.46312E-05178270   0.131E-02    0.165E-02
DAV:   4    -0.192271267916E+04    0.57775E-05   -0.10266E-05178750   0.654E-03    0.106E-02
DAV:   5    -0.192271267591E+04    0.32482E-05   -0.16843E-05192280   0.726E-03    0.381E-03
DAV:   6    -0.192271267605E+04   -0.13890E-06   -0.42792E-06176230   0.284E-03    0.373E-03
DAV:   7    -0.192271267578E+04    0.27458E-06   -0.64883E-07149160   0.117E-03    0.172E-03
DAV:   8    -0.192271267564E+04    0.14214E-06   -0.43947E-07125810   0.864E-04    0.879E-04
DAV:   9    -0.192271267560E+04    0.38825E-07   -0.49061E-08 84660   0.567E-04
  20 F= -.19227127E+04 E0= -.19227127E+04  d E =-.779872E-04  mag=     0.0000
 trial-energy change:   -0.000078  1 .order   -0.000091   -0.000164   -0.000017
 step:   1.0477(harm=  1.0477)  dis= 0.00036  next Energy= -1922.712689 (dE=-0.916E-04)
 bond charge predicted
       N       E                     dE             d eps       ncg     rms          rms(c)
DAV:   1    -0.192271267484E+04    0.79963E-06   -0.80195E-04145650   0.333E-02    0.442E-03
DAV:   2    -0.192271267635E+04   -0.15140E-05   -0.22468E-05198250   0.641E-03    0.272E-03
DAV:   3    -0.192271267622E+04    0.13327E-06   -0.61217E-07163300   0.147E-03    0.181E-03
DAV:   4    -0.192271267606E+04    0.15378E-06   -0.10464E-07101240   0.776E-04    0.122E-03
DAV:   5    -0.192271267594E+04    0.12406E-06   -0.28535E-07126810   0.911E-04    0.404E-04
DAV:   6    -0.192271267594E+04   -0.19354E-08   -0.65565E-08 82710   0.433E-04
  21 F= -.19227127E+04 E0= -.19227127E+04  d E =-.783312E-04  mag=     0.0000
 curvature:  -0.98 expect dE=-0.450E-04 dE for cont linesearch -0.321E-09
 trial: gam= 0.26386 g(F)=  0.459E-04 g(S)=  0.000E+00 ort =-0.327E-06 (trialstep = 0.961E+00)
 search vector abs. value=  0.685E-04
 bond charge predicted
       N       E                     dE             d eps       ncg     rms          rms(c)
DAV:   1    -0.192271268663E+04   -0.10692E-04   -0.82945E-03150680   0.107E-01    0.150E-02
DAV:   2    -0.192271271017E+04   -0.23537E-04   -0.27469E-04196430   0.209E-02    0.927E-03
DAV:   3    -0.192271270915E+04    0.10186E-05   -0.66489E-06194160   0.401E-03    0.694E-03
DAV:   4    -0.192271270829E+04    0.86435E-06   -0.70690E-06166850   0.408E-03    0.289E-03
DAV:   5    -0.192271270829E+04   -0.46130E-08   -0.14327E-06167360   0.156E-03    0.322E-03
DAV:   6    -0.192271270814E+04    0.15355E-06   -0.42528E-07130680   0.115E-03    0.166E-03
DAV:   7    -0.192271270815E+04   -0.12413E-07   -0.50642E-07139010   0.101E-03
  22 F= -.19227127E+04 E0= -.19227127E+04  d E =-.322078E-04  mag=    -0.0000
 trial-energy change:   -0.000032  1 .order   -0.000032   -0.000044   -0.000020
 step:   1.7970(harm=  1.7970)  dis= 0.00050  next Energy= -1922.712717 (dE=-0.412E-04)
 bond charge predicted
       N       E                     dE             d eps       ncg     rms          rms(c)
DAV:   1    -0.192271269986E+04    0.82768E-05   -0.62674E-03150800   0.931E-02    0.129E-02
DAV:   2    -0.192271271786E+04   -0.18002E-04   -0.20786E-04196980   0.182E-02    0.808E-03
DAV:   3    -0.192271271709E+04    0.77105E-06   -0.47998E-06195150   0.343E-03    0.602E-03
DAV:   4    -0.192271271647E+04    0.62492E-06   -0.56446E-06166300   0.363E-03    0.263E-03
DAV:   5    -0.192271271645E+04    0.17812E-07   -0.10937E-06158190   0.140E-03    0.281E-03
DAV:   6    -0.192271271633E+04    0.11361E-06   -0.36412E-07125660   0.103E-03    0.133E-03
DAV:   7    -0.192271271635E+04   -0.13431E-07   -0.35914E-07121370   0.873E-04
  23 F= -.19227127E+04 E0= -.19227127E+04  d E =-.404065E-04  mag=    -0.0000
 curvature:  -1.34 expect dE=-0.477E-04 dE for cont linesearch -0.874E-08
 trial: gam= 0.78746 g(F)=  0.355E-04 g(S)=  0.000E+00 ort =-0.668E-06 (trialstep = 0.101E+01)
 search vector abs. value=  0.770E-04
 bond charge predicted
       N       E                     dE             d eps       ncg     rms          rms(c)
DAV:   1    -0.192271269553E+04    0.20804E-04   -0.16091E-02148980   0.151E-01    0.207E-02
DAV:   2    -0.192271273789E+04   -0.42356E-04   -0.48096E-04188430   0.317E-02    0.159E-02
DAV:   3    -0.192271273337E+04    0.45186E-05   -0.20801E-05172690   0.927E-03    0.847E-03
DAV:   4    -0.192271273180E+04    0.15668E-05   -0.58858E-06218140   0.523E-03    0.592E-03
DAV:   5    -0.192271273090E+04    0.89634E-06   -0.35078E-06188250   0.380E-03    0.200E-03
DAV:   6    -0.192271273118E+04   -0.27768E-06   -0.21346E-06210510   0.237E-03    0.154E-03
DAV:   7    -0.192271273132E+04   -0.13591E-06   -0.23164E-07108670   0.780E-04    0.725E-04
DAV:   8    -0.192271273138E+04   -0.58208E-07   -0.46722E-08 92530   0.530E-04
  24 F= -.19227127E+04 E0= -.19227127E+04  d E =-.150283E-04  mag=     0.0000
 trial-energy change:   -0.000015  1 .order   -0.000012   -0.000035    0.000010
 step:   0.8279(harm=  0.7783)  dis= 0.00023  next Energy= -1922.712732 (dE=-0.159E-04)
 bond charge predicted
       N       E                     dE             d eps       ncg     rms          rms(c)
DAV:   1    -0.192271273169E+04   -0.37032E-06   -0.50350E-04149560   0.266E-02    0.371E-03
DAV:   2    -0.192271273273E+04   -0.10388E-05   -0.15512E-05188090   0.563E-03    0.292E-03
DAV:   3    -0.192271273257E+04    0.16086E-06   -0.62442E-07152380   0.166E-03    0.160E-03
DAV:   4    -0.192271273239E+04    0.18117E-06   -0.13517E-07102770   0.100E-03    0.117E-03
DAV:   5    -0.192271273220E+04    0.18397E-06   -0.42882E-07128680   0.117E-03    0.412E-04
DAV:   6    -0.192271273220E+04    0.60245E-08   -0.11063E-07 85970   0.493E-04
  25 F= -.19227127E+04 E0= -.19227127E+04  d E =-.158472E-04  mag=     0.0000
 curvature:  -0.82 expect dE=-0.100E-04 dE for cont linesearch -0.729E-07
 trial: gam= 0.38539 g(F)=  0.123E-04 g(S)=  0.000E+00 ort =-0.262E-05 (trialstep = 0.970E+00)
 search vector abs. value=  0.217E-04
 bond charge predicted
       N       E                     dE             d eps       ncg     rms          rms(c)
DAV:   1    -0.192271273450E+04   -0.23012E-05   -0.18025E-03150480   0.506E-02    0.870E-03
DAV:   2    -0.192271273951E+04   -0.50071E-05   -0.67750E-05189500   0.111E-02    0.474E-03
DAV:   3    -0.192271273931E+04    0.19833E-06   -0.30055E-06199830   0.238E-03    0.369E-03
DAV:   4    -0.192271273905E+04    0.26083E-06   -0.78902E-07165720   0.143E-03    0.173E-03
DAV:   5    -0.192271273909E+04   -0.39727E-07   -0.53675E-07156380   0.125E-03
  26 F= -.19227127E+04 E0= -.19227127E+04  d E =-.689490E-05  mag=     0.0000
 trial-energy change:   -0.000007  1 .order   -0.000007   -0.000011   -0.000003
 step:   1.3040(harm=  1.3040)  dis= 0.00012  next Energy= -1922.712740 (dE=-0.737E-05)
 bond charge predicted
       N       E                     dE             d eps       ncg     rms          rms(c)
DAV:   1    -0.192271273887E+04    0.17878E-06   -0.21365E-04150620   0.174E-02    0.363E-03
DAV:   2    -0.192271273946E+04   -0.59008E-06   -0.86948E-06190570   0.404E-03    0.169E-03
DAV:   3    -0.192271273947E+04   -0.86729E-08   -0.45005E-07146350   0.926E-04
  27 F= -.19227127E+04 E0= -.19227127E+04  d E =-.727514E-05  mag=     0.0000
 curvature:  -1.25 expect dE=-0.256E-04 dE for cont linesearch -0.634E-09
 trial: gam= 1.50620 g(F)=  0.204E-04 g(S)=  0.000E+00 ort = 0.105E-06 (trialstep = 0.322E+00)
 search vector abs. value=  0.700E-04
 bond charge predicted
       N       E                     dE             d eps       ncg     rms          rms(c)
DAV:   1    -0.192271274480E+04   -0.53415E-05   -0.42491E-04153800   0.243E-02    0.456E-03
DAV:   2    -0.192271274615E+04   -0.13468E-05   -0.16625E-05189880   0.524E-03    0.216E-03
DAV:   3    -0.192271274612E+04    0.26776E-07   -0.67295E-07169420   0.115E-03
  28 F= -.19227127E+04 E0= -.19227127E+04  d E =-.665284E-05  mag=     0.0000
 ZBRENT: can't locate minimum, use default step
 trial-energy change:   -0.000007  1 .order   -0.000007   -0.000007   -0.000007
 step:   1.2860(harm=********)  dis= 0.00019  next Energy= -1922.726405 (dE=-0.137E-01)
 bond charge predicted
       N       E                     dE             d eps       ncg     rms          rms(c)
DAV:   1    -0.192271275469E+04   -0.85368E-05   -0.38427E-03153360   0.731E-02    0.134E-02
DAV:   2    -0.192271276712E+04   -0.12428E-04   -0.15040E-04189470   0.157E-02    0.654E-03
DAV:   3    -0.192271276676E+04    0.35437E-06   -0.58030E-06199990   0.339E-03    0.493E-03
DAV:   4    -0.192271276626E+04    0.49904E-06   -0.17153E-06178410   0.199E-03    0.212E-03
DAV:   5    -0.192271276619E+04    0.73836E-07   -0.58240E-07160530   0.145E-03
  29 F= -.19227128E+04 E0= -.19227128E+04  d E =-.267175E-04  mag=     0.0000
 curvature:  -3.28 expect dE=-0.860E-04 dE for cont linesearch -0.225E-04
 ZBRENT: increasing intervall
 opt :   3.2151  next Energy= -1922.712811 (dE=-0.716E-04)
 bond charge predicted
       N       E                     dE             d eps       ncg     rms          rms(c)
DAV:   1    -0.192271275994E+04    0.63258E-05   -0.15391E-02153170   0.146E-01    0.272E-02
DAV:   2    -0.192271281162E+04   -0.51680E-04   -0.62030E-04189450   0.317E-02    0.127E-02
DAV:   3    -0.192271281033E+04    0.12866E-05   -0.22721E-05198460   0.678E-03    0.966E-03
DAV:   4    -0.192271280862E+04    0.17128E-05   -0.70913E-06180810   0.403E-03    0.412E-03
DAV:   5    -0.192271280838E+04    0.23287E-06   -0.23817E-06168350   0.283E-03    0.326E-03
DAV:   6    -0.192271280819E+04    0.19491E-06   -0.76776E-07169980   0.175E-03    0.243E-03
DAV:   7    -0.192271280813E+04    0.57160E-07   -0.11039E-06176610   0.165E-03    0.120E-03
DAV:   8    -0.192271280811E+04    0.18888E-07   -0.20577E-07104390   0.700E-04
  30 F= -.19227128E+04 E0= -.19227128E+04  d E =-.686425E-04  mag=     0.0000
 curvature:  -6.54 expect dE=-0.381E-03 dE for cont linesearch -0.461E-04
 ZBRENT: increasing intervall
 opt :   7.0732  next Energy= -1922.712895 (dE=-0.155E-03)
 bond charge predicted
       N       E                     dE             d eps       ncg     rms          rms(c)
DAV:   1    -0.192271270601E+04    0.10212E-03   -0.61675E-02152960   0.293E-01    0.530E-02
DAV:   2    -0.192271291351E+04   -0.20751E-03   -0.24590E-03189520   0.630E-02    0.254E-02
DAV:   3    -0.192271290786E+04    0.56570E-05   -0.87579E-05199080   0.135E-02    0.191E-02
DAV:   4    -0.192271290146E+04    0.63955E-05   -0.26230E-05188810   0.792E-03    0.843E-03
DAV:   5    -0.192271290036E+04    0.11034E-05   -0.97580E-06167840   0.563E-03    0.619E-03
DAV:   6    -0.192271289982E+04    0.53631E-06   -0.31558E-06186960   0.345E-03    0.461E-03
DAV:   7    -0.192271289963E+04    0.19275E-06   -0.37248E-06194030   0.303E-03    0.226E-03
DAV:   8    -0.192271289959E+04    0.40091E-07   -0.75321E-07154410   0.129E-03
  31 F= -.19227129E+04 E0= -.19227129E+04  d E =-.160120E-03  mag=     0.0000
 curvature: -12.31 expect dE=-0.263E-02 dE for cont linesearch -0.110E-03
 ZBRENT: increasing intervall
 opt :  14.7894  next Energy= -1922.713114 (dE=-0.374E-03)
 bond charge predicted
       N       E                     dE             d eps       ncg     rms          rms(c)
DAV:   1    -0.192271235465E+04    0.54498E-03   -0.24663E-01152690   0.586E-01    0.106E-01
DAV:   2    -0.192271318563E+04   -0.83097E-03   -0.98355E-03189330   0.126E-01    0.508E-02
DAV:   3    -0.192271316277E+04    0.22854E-04   -0.34930E-04199080   0.269E-02    0.381E-02
DAV:   4    -0.192271313807E+04    0.24708E-04   -0.10566E-04189370   0.159E-02    0.168E-02
DAV:   5    -0.192271313371E+04    0.43508E-05   -0.38775E-05169180   0.113E-02    0.124E-02
DAV:   6    -0.192271313182E+04    0.18928E-05   -0.12613E-05186880   0.685E-03    0.920E-03
DAV:   7    -0.192271313110E+04    0.72106E-06   -0.15001E-05195510   0.607E-03    0.455E-03
DAV:   8    -0.192271313097E+04    0.13324E-06   -0.31001E-06175880   0.257E-03    0.340E-03
DAV:   9    -0.192271313077E+04    0.20188E-06   -0.12927E-06166340   0.164E-03    0.129E-03
DAV:  10    -0.192271313071E+04    0.51383E-07   -0.18712E-07108450   0.814E-04
  32 F= -.19227131E+04 E0= -.19227131E+04  d E =-.391244E-03  mag=     0.0000
 curvature: -24.01 expect dE=-0.214E-01 dE for cont linesearch -0.320E-03
 ZBRENT: increasing intervall
 opt :  30.2219  next Energy= -1922.713688 (dE=-0.948E-03)
 bond charge predicted
       N       E                     dE             d eps       ncg     rms          rms(c)
DAV:   1    -0.192271054631E+04    0.25845E-02   -0.98602E-01152500   0.117E+00    0.212E-01
DAV:   2    -0.192271387324E+04   -0.33269E-02   -0.39353E-02189500   0.252E-01    0.102E-01
DAV:   3    -0.192271377904E+04    0.94194E-04   -0.13800E-03199400   0.535E-02    0.763E-02
DAV:   4    -0.192271368076E+04    0.98286E-04   -0.43544E-04186600   0.321E-02    0.331E-02
DAV:   5    -0.192271366472E+04    0.16037E-04   -0.15529E-04169660   0.226E-02    0.252E-02
DAV:   6    -0.192271365749E+04    0.72329E-05   -0.50309E-05187450   0.136E-02    0.186E-02
DAV:   7    -0.192271365466E+04    0.28271E-05   -0.63002E-05195060   0.124E-02    0.930E-03
DAV:   8    -0.192271365414E+04    0.51729E-06   -0.13017E-05176010   0.523E-03    0.693E-03
DAV:   9    -0.192271365338E+04    0.76601E-06   -0.58025E-06180330   0.335E-03    0.264E-03
DAV:  10    -0.192271365321E+04    0.16822E-06   -0.80253E-07158450   0.164E-03    0.209E-03
DAV:  11    -0.192271365302E+04    0.19211E-06   -0.42257E-07142230   0.142E-03    0.574E-04
DAV:  12    -0.192271365303E+04   -0.15207E-07   -0.39360E-07142920   0.886E-04
  33 F= -.19227137E+04 E0= -.19227137E+04  d E =-.913561E-03  mag=    -0.0000
 curvature: -41.82 expect dE=-0.154E+00 dE for cont linesearch -0.933E-03
 ZBRENT: increasing intervall
 opt :  61.0868  next Energy= -1922.715150 (dE=-0.241E-02)
 bond charge predicted
       N       E                     dE             d eps       ncg     rms          rms(c)
DAV:   1    -0.192270264993E+04    0.11003E-01   -0.39425E+00152520   0.234E+00    0.423E-01
DAV:   2    -0.192271597803E+04   -0.13328E-01   -0.15732E-01190110   0.504E-01    0.204E-01
DAV:   3    -0.192271558669E+04    0.39134E-03   -0.53849E-03200180   0.106E-01    0.152E-01
DAV:   4    -0.192271519838E+04    0.38831E-03   -0.17609E-03184900   0.642E-02    0.654E-02
DAV:   5    -0.192271513749E+04    0.60894E-04   -0.60248E-04169860   0.447E-02    0.500E-02
DAV:   6    -0.192271510992E+04    0.27563E-04   -0.19939E-04187990   0.269E-02    0.365E-02
DAV:   7    -0.192271509977E+04    0.10158E-04   -0.24805E-04196490   0.247E-02    0.188E-02
DAV:   8    -0.192271509747E+04    0.22913E-05   -0.51286E-05175930   0.104E-02    0.140E-02
DAV:   9    -0.192271509450E+04    0.29726E-05   -0.24452E-05184150   0.676E-03    0.541E-03
DAV:  10    -0.192271509391E+04    0.59433E-06   -0.30821E-06167420   0.332E-03    0.407E-03
DAV:  11    -0.192271509331E+04    0.59778E-06   -0.18469E-06180400   0.277E-03    0.117E-03
DAV:  12    -0.192271509339E+04   -0.78275E-07   -0.12197E-06181680   0.151E-03    0.239E-03
DAV:  13    -0.192271509330E+04    0.85784E-07   -0.21911E-07112900   0.838E-04
  34 F= -.19227151E+04 E0= -.19227151E+04  d E =-.235383E-02  mag=     0.0000
 curvature: -67.11 expect dE=-0.997E+00 dE for cont linesearch -0.263E-02
 ZBRENT: increasing intervall
 opt : 122.8166  next Energy= -1922.719117 (dE=-0.638E-02)
 bond charge predicted
       N       E                     dE             d eps       ncg     rms          rms(c)
DAV:   1    -0.192266772271E+04    0.47371E-01   -0.15763E+01152520   0.469E+00    0.844E-01
DAV:   2    -0.192272131297E+04   -0.53590E-01   -0.63104E-01190440   0.101E+00    0.411E-01
DAV:   3    -0.192271969327E+04    0.16197E-02   -0.21262E-02200470   0.211E-01    0.304E-01
DAV:   4    -0.192271813631E+04    0.15570E-02   -0.72291E-03180600   0.129E-01    0.128E-01
DAV:   5    -0.192271791468E+04    0.22163E-03   -0.23237E-03169990   0.881E-02    0.992E-02
DAV:   6    -0.192271780734E+04    0.10734E-03   -0.78816E-04190080   0.532E-02    0.711E-02
DAV:   7    -0.192271777238E+04    0.34959E-04   -0.97055E-04196310   0.492E-02    0.385E-02
DAV:   8    -0.192271776134E+04    0.11040E-04   -0.20409E-04177050   0.208E-02    0.280E-02
DAV:   9    -0.192271775045E+04    0.10891E-04   -0.99651E-05185250   0.133E-02    0.113E-02
DAV:  10    -0.192271774762E+04    0.28310E-05   -0.10615E-05166960   0.678E-03    0.738E-03
DAV:  11    -0.192271774590E+04    0.17194E-05   -0.75810E-06188620   0.533E-03    0.248E-03
DAV:  12    -0.192271774611E+04   -0.20870E-06   -0.36651E-06190180   0.263E-03    0.431E-03
DAV:  13    -0.192271774583E+04    0.27375E-06   -0.64534E-07154950   0.145E-03    0.171E-03
DAV:  14    -0.192271774583E+04    0.54133E-08   -0.43987E-07152930   0.979E-04
  35 F= -.19227177E+04 E0= -.19227177E+04  d E =-.500636E-02  mag=     0.0000
 curvature: ****** expect dE=-0.598E+01 dE for cont linesearch -0.336E-03
 ZBRENT: extrapolating
 opt : 147.9174  next Energy= -1922.717936 (dE=-0.520E-02)
 bond charge predicted
       N       E                     dE             d eps       ncg     rms          rms(c)
DAV:   1    -0.192270917830E+04    0.85675E-02   -0.26059E+00152920   0.191E+00    0.343E-01
DAV:   2    -0.192271812444E+04   -0.89461E-02   -0.10510E-01190540   0.412E-01    0.169E-01
DAV:   3    -0.192271783933E+04    0.28512E-03   -0.34431E-03200300   0.855E-02    0.124E-01
DAV:   4    -0.192271757778E+04    0.26155E-03   -0.12559E-03179250   0.541E-02    0.523E-02
DAV:   5    -0.192271754524E+04    0.32539E-04   -0.39832E-04170760   0.365E-02    0.413E-02
DAV:   6    -0.192271752618E+04    0.19063E-04   -0.13078E-04188120   0.215E-02    0.292E-02
DAV:   7    -0.192271752091E+04    0.52623E-05   -0.17012E-04196540   0.205E-02    0.161E-02
DAV:   8    -0.192271751892E+04    0.19884E-05   -0.35652E-05174720   0.864E-03    0.120E-02
DAV:   9    -0.192271751708E+04    0.18428E-05   -0.18604E-05186020   0.568E-03    0.513E-03
DAV:  10    -0.192271751639E+04    0.69242E-06   -0.19053E-06162410   0.297E-03    0.309E-03
DAV:  11    -0.192271751609E+04    0.30098E-06   -0.13323E-06174640   0.216E-03    0.925E-04
DAV:  12    -0.192271751611E+04   -0.22963E-07   -0.56022E-07161630   0.106E-03
  36 F= -.19227175E+04 E0= -.19227175E+04  d E =-.477664E-02  mag=     0.0000
 curvature: -58.06 expect dE=-0.485E+01 dE for cont linesearch -0.115E-02
 ZBRENT: bracketing found
 ZBRENT: interpolating
 opt : 130.0779  next Energy= -1922.717801 (dE=-0.506E-02)
 bond charge predicted
       N       E                     dE             d eps       ncg     rms          rms(c)
DAV:   1    -0.192271359229E+04    0.39238E-02   -0.13159E+00152920   0.136E+00    0.244E-01
DAV:   2    -0.192271812584E+04   -0.45335E-02   -0.53323E-02190740   0.294E-01    0.121E-01
DAV:   3    -0.192271797769E+04    0.14815E-03   -0.17331E-03200010   0.609E-02    0.883E-02
DAV:   4    -0.192271784863E+04    0.12906E-03   -0.64281E-04180740   0.391E-02    0.377E-02
DAV:   5    -0.192271783100E+04    0.17628E-04   -0.21003E-04170950   0.265E-02    0.298E-02
DAV:   6    -0.192271782171E+04    0.92971E-05   -0.66490E-05186840   0.153E-02    0.212E-02
DAV:   7    -0.192271781842E+04    0.32820E-05   -0.89743E-05196430   0.148E-02    0.115E-02
DAV:   8    -0.192271781767E+04    0.74859E-06   -0.18663E-05174620   0.622E-03    0.866E-03
DAV:   9    -0.192271781670E+04    0.97683E-06   -0.96234E-06185560   0.412E-03    0.374E-03
DAV:  10    -0.192271781651E+04    0.19203E-06   -0.10277E-06160440   0.213E-03    0.231E-03
DAV:  11    -0.192271781638E+04    0.12110E-06   -0.62777E-07153330   0.154E-03    0.613E-04
DAV:  12    -0.192271781641E+04   -0.24156E-07   -0.29076E-07126970   0.832E-04
  37 F= -.19227178E+04 E0= -.19227178E+04  d E =-.507694E-02  mag=    -0.0000
 curvature:  -2.78 expect dE=-0.181E+00 dE for cont linesearch -0.368E-06
 trial: gam=******** g(F)=  0.651E-01 g(S)=  0.000E+00 ort = 0.304E-05 (trialstep = 0.258E-05)
 search vector abs. value=  0.714E+03
 bond charge predicted
       N       E                     dE             d eps       ncg     rms          rms(c)
DAV:   1    -0.192271781657E+04   -0.18260E-06   -0.33901E-07122220   0.832E-04    0.719E-04
DAV:   2    -0.192271781656E+04    0.11758E-07   -0.48139E-08 84610   0.439E-04
  38 F= -.19227178E+04 E0= -.19227178E+04  d E =-.146683E-06  mag=    -0.0000
 ZBRENT: can't locate minimum, use default step
 trial-energy change:   -0.000000  1 .order   -0.000000   -0.000000   -0.000000
 step:   0.0000(harm=  0.0002)  dis= 0.00000  next Energy= -1922.717823 (dE=-0.671E-05)
 bond charge predicted
       N       E                     dE             d eps       ncg     rms          rms(c)
DAV:   1    -0.192271781712E+04   -0.55408E-06   -0.26211E-06141100   0.194E-03    0.362E-04
DAV:   2    -0.192271781713E+04   -0.97789E-08   -0.95322E-08 87800   0.483E-04
  39 F= -.19227178E+04 E0= -.19227178E+04  d E =-.722299E-06  mag=    -0.0000
 curvature:  -0.07 expect dE=-0.477E-02 dE for cont linesearch -0.550E-06
 trial: gam= 0.00002 g(F)=  0.651E-01 g(S)=  0.000E+00 ort = 0.732E-01 (trialstep = 0.412E-05)
 search vector abs. value=  0.651E-01
 reached required accuracy - stopping structural energy minimisation
Fri Aug  6 18:52:58 MST 2021
Detailed performance metrics for this job will be available at https://metrics.hpc.arizona.edu/#job_viewer?action=show&realm=SUPREMM&resource_id=73&local_job_id=1566499 by 8am on 2021/08/07.
