Ca2Al24O38                              
           1
    11.465310    0.000000    0.000000
    -5.732655    9.929250    0.000000
     0.000000    0.000000   22.419979
   Al   Ca   Mg   O    Ti
  64   8  16 152  16
Direct configuration=     1
   0.00000000  0.00000000  0.00000000
   0.00000000  0.00000000  0.50000000
   1.00000000  0.50000000  0.00000000
   1.00000000  0.50000000  0.50000000
   0.50000000  0.00000000  0.00000000
   0.50000000  0.00000000  0.50000000
   0.50000000  0.50000000  0.00000000
   0.50000000  0.50000000  0.50000000
   0.00000000  0.00000000  0.25000000
   0.00000000  0.00000000  0.74999998
   1.00000000  0.50000000  0.25000000
   1.00000000  0.50000000  0.74999998
   0.50000000  0.00000000  0.25000000
   0.50000000  0.00000000  0.74999998
   0.50000000  0.50000000  0.25000000
   0.50000000  0.50000000  0.74999998
   0.41589997  0.08410000  0.11008000
   0.41589997  0.33180002  0.11008000
   0.16820000  0.08410000  0.11008000
   0.08410001  0.41589999  0.61008002
   0.08410000  0.16820001  0.61008002
   0.33180003  0.41589999  0.61008002
   0.08410001  0.41589999  0.88992002
   0.33180003  0.41589999  0.88992002
   0.08410000  0.16820001  0.88992002
   0.41589997  0.08410000  0.38991998
   0.16820000  0.08410000  0.38991998
   0.41589997  0.33180002  0.38991998
   0.41589997  0.58410000  0.11008000
   0.41589999  0.83179999  0.11008000
   0.16819999  0.58410000  0.11008000
   0.08410001  0.91589994  0.61008002
   0.08410000  0.66820000  0.61008002
   0.33180000  0.91589994  0.61008002
   0.08410001  0.91589994  0.88992002
   0.33180000  0.91589994  0.88992002
   0.08410000  0.66820000  0.88992002
   0.41589997  0.58410000  0.38991998
   0.16819999  0.58410000  0.38991998
   0.41589999  0.83179999  0.38991998
   0.91589997  0.08410000  0.11008000
   0.91589997  0.33180002  0.11008000
   0.66819999  0.08410000  0.11008000
   0.58410003  0.41589999  0.61008002
   0.58410000  0.16820001  0.61008002
   0.83179996  0.41589999  0.61008002
   0.58410003  0.41589999  0.88992002
   0.83179996  0.41589999  0.88992002
   0.58410000  0.16820001  0.88992002
   0.91589997  0.08410000  0.38991998
   0.66819999  0.08410000  0.38991998
   0.91589997  0.33180002  0.38991998
   0.91589997  0.58410000  0.11008000
   0.91589999  0.83179999  0.11008000
   0.66819999  0.58410000  0.11008000
   0.58410001  0.91589994  0.61008002
   0.58410002  0.66820000  0.61008002
   0.83179994  0.91589994  0.61008002
   0.58410001  0.91589994  0.88992002
   0.83179994  0.91589994  0.88992002
   0.58410002  0.66820000  0.88992002
   0.91589997  0.58410000  0.38991998
   0.66819999  0.58410000  0.38991998
   0.91589999  0.83179999  0.38991998
   0.33332999  0.16667000  0.25016999
   0.16667000  0.33333001  0.75017003
   0.33332999  0.66667001  0.25016999
   0.16667002  0.83332998  0.75017003
   0.83332990  0.16667000  0.25016999
   0.66667001  0.33333001  0.75017003
   0.83332995  0.66667001  0.25016999
   0.66667004  0.83332998  0.75017003
   0.16667000  0.33333001  0.02887000
   0.33332999  0.16667000  0.52887000
   0.33332999  0.16667000  0.97113000
   0.16667000  0.33333001  0.47113000
   0.16667002  0.83332998  0.02887000
   0.33332999  0.66667001  0.52887000
   0.33332999  0.66667001  0.97113000
   0.16667002  0.83332998  0.47113000
   0.66667001  0.33333001  0.02887000
   0.83332990  0.16667000  0.52887000
   0.83332990  0.16667000  0.97113000
   0.66667001  0.33333001  0.47113000
   0.66667004  0.83332998  0.02887000
   0.83332995  0.66667001  0.52887000
   0.83332995  0.66667001  0.97113000
   0.66667004  0.83332998  0.47113000
   0.00000000  0.00000000  0.15136000
   0.00000000  0.00000000  0.65135998
   0.00000000  0.00000000  0.84864007
   0.00000000  0.00000000  0.34864000
   1.00000000  0.50000000  0.15136000
   1.00000000  0.50000000  0.65135998
   1.00000000  0.50000000  0.84864007
   1.00000000  0.50000000  0.34864000
   0.50000000  0.00000000  0.15136000
   0.50000000  0.00000000  0.65135998
   0.50000000  0.00000000  0.84864007
   0.50000000  0.00000000  0.34864000
   0.50000000  0.50000000  0.15136000
   0.50000000  0.50000000  0.65135998
   0.50000000  0.50000000  0.84864007
   0.50000000  0.50000000  0.34864000
   0.16667000  0.33333001  0.94584002
   0.33332999  0.16667000  0.44584002
   0.33332999  0.16667000  0.05416000
   0.16667000  0.33333001  0.55415998
   0.16667002  0.83332998  0.94584002
   0.33332999  0.66667001  0.44584002
   0.33332999  0.66667001  0.05416000
   0.16667002  0.83332998  0.55415998
   0.66667001  0.33333001  0.94584002
   0.83332990  0.16667000  0.44584002
   0.83332990  0.16667000  0.05416000
   0.66667001  0.33333001  0.55415998
   0.66667004  0.83332998  0.94584002
   0.83332995  0.66667001  0.44584002
   0.83332995  0.66667001  0.05416000
   0.66667004  0.83332998  0.55415998
   0.09084001  0.40915998  0.25033000
   0.09084001  0.18169001  0.25033000
   0.31831001  0.40915998  0.25033000
   0.40915997  0.09084000  0.75032993
   0.40915997  0.31831000  0.75032993
   0.18169000  0.09084000  0.75032993
   0.09083999  0.90916000  0.25033000
   0.09083998  0.68168997  0.25033000
   0.31831000  0.90916000  0.25033000
   0.40915997  0.59083999  0.75032993
   0.40915998  0.81831002  0.75032993
   0.18169000  0.59083999  0.75032993
   0.59084002  0.40915998  0.25033000
   0.59084000  0.18169001  0.25033000
   0.81831003  0.40915998  0.25033000
   0.90916001  0.09084000  0.75032993
   0.90916001  0.31831000  0.75032993
   0.68169000  0.09084000  0.75032993
   0.59083999  0.90916000  0.25033000
   0.59083998  0.68168997  0.25033000
   0.81831000  0.90916000  0.25033000
   0.90916001  0.59083999  0.75032993
   0.90916002  0.81831002  0.75032993
   0.68169000  0.59083999  0.75032993
   0.07749999  0.42250000  0.05284000
   0.07750000  0.15500000  0.05284000
   0.34500001  0.42250000  0.05284000
   0.42249998  0.07750000  0.55283999
   0.42250000  0.34500000  0.55283999
   0.15500000  0.07750000  0.55283999
   0.42249998  0.07750000  0.94716001
   0.15500000  0.07750000  0.94716001
   0.42250000  0.34500000  0.94716001
   0.07749999  0.42250000  0.44716001
   0.34500001  0.42250000  0.44716001
   0.07750000  0.15500000  0.44716001
   0.07749997  0.92250000  0.05284000
   0.07749997  0.65499995  0.05284000
   0.34499998  0.92250000  0.05284000
   0.42250000  0.57750000  0.55283999
   0.42250000  0.84500000  0.55283999
   0.15500000  0.57750000  0.55283999
   0.42250000  0.57750000  0.94716001
   0.15500000  0.57750000  0.94716001
   0.42250000  0.84500000  0.94716001
   0.07749997  0.92250000  0.44716001
   0.34499998  0.92250000  0.44716001
   0.07749997  0.65499995  0.44716001
   0.57749997  0.42250000  0.05284000
   0.57750000  0.15500000  0.05284000
   0.84500003  0.42250000  0.05284000
   0.92250007  0.07750000  0.55283999
   0.92250004  0.34500000  0.55283999
   0.65499997  0.07750000  0.55283999
   0.92250007  0.07750000  0.94716001
   0.65499997  0.07750000  0.94716001
   0.92250004  0.34500000  0.94716001
   0.57749997  0.42250000  0.44716001
   0.84500003  0.42250000  0.44716001
   0.57750000  0.15500000  0.44716001
   0.57749997  0.92250000  0.05284000
   0.57749997  0.65499995  0.05284000
   0.84499998  0.92250000  0.05284000
   0.92250002  0.57750000  0.55283999
   0.92250004  0.84500000  0.55283999
   0.65499997  0.57750000  0.55283999
   0.92250002  0.57750000  0.94716001
   0.65499997  0.57750000  0.94716001
   0.92250004  0.84500000  0.94716001
   0.57749997  0.92250000  0.44716001
   0.84499998  0.92250000  0.44716001
   0.57749997  0.65499995  0.44716001
   0.25174000  0.24826000  0.15018000
   0.25174000  0.00348000  0.15018000
   0.49652002  0.24826000  0.15018000
   0.24826000  0.25174000  0.65017996
   0.24826000  0.49651999  0.65017996
   0.00348000  0.25174000  0.65017996
   0.24826000  0.25174000  0.84982004
   0.00348000  0.25174000  0.84982004
   0.24826000  0.49651999  0.84982004
   0.25174000  0.24826000  0.34981999
   0.49652002  0.24826000  0.34981999
   0.25174000  0.00348000  0.34981999
   0.25173998  0.74825999  0.15018000
   0.25174000  0.50348000  0.15018000
   0.49651997  0.74825999  0.15018000
   0.24826002  0.75174000  0.65017996
   0.24825997  0.99651994  0.65017996
   0.00348002  0.75174000  0.65017996
   0.24826002  0.75174000  0.84982004
   0.00348002  0.75174000  0.84982004
   0.24825997  0.99651994  0.84982004
   0.25173998  0.74825999  0.34981999
   0.49651997  0.74825999  0.34981999
   0.25174000  0.50348000  0.34981999
   0.75173998  0.24826000  0.15018000
   0.75173996  0.00348000  0.15018000
   0.99652002  0.24826000  0.15018000
   0.74826006  0.25174000  0.65017996
   0.74826004  0.49651999  0.65017996
   0.50348002  0.25174000  0.65017996
   0.74826006  0.25174000  0.84982004
   0.50348002  0.25174000  0.84982004
   0.74826004  0.49651999  0.84982004
   0.75173998  0.24826000  0.34981999
   0.99652002  0.24826000  0.34981999
   0.75173996  0.00348000  0.34981999
   0.75173993  0.74825999  0.15018000
   0.75173996  0.50348000  0.15018000
   0.99651997  0.74825999  0.15018000
   0.74826006  0.75174000  0.65017996
   0.74826001  0.99651994  0.65017996
   0.50348002  0.75174000  0.65017996
   0.74826006  0.75174000  0.84982004
   0.50348002  0.75174000  0.84982004
   0.74826001  0.99651994  0.84982004
   0.75173993  0.74825999  0.34981999
   0.99651997  0.74825999  0.34981999
   0.75173996  0.50348000  0.34981999
   0.33332999  0.16667000  0.80899998
   0.16667000  0.33333001  0.30899998
   0.16667000  0.33333001  0.19100000
   0.33332999  0.16667000  0.69099997
   0.33332999  0.66667001  0.80899998
   0.16667002  0.83332998  0.30899998
   0.16667002  0.83332998  0.19100000
   0.33332999  0.66667001  0.69099997
   0.83332990  0.16667000  0.80899998
   0.66667001  0.33333001  0.30899998
   0.66667001  0.33333001  0.19100000
   0.83332990  0.16667000  0.69099997
   0.83332995  0.66667001  0.80899998
   0.66667004  0.83332998  0.30899998
   0.66667004  0.83332998  0.19100000
   0.83332995  0.66667001  0.69099997
Direct configuration=     2
  -0.00000000  0.00000000 -0.00005130
   0.00000000 -0.00000000  0.49994870
   1.00000000  0.50000000 -0.00005130
   1.00000000  0.50000000  0.49994870
   0.50000000  0.00000000 -0.00005130
   0.50000000 -0.00000000  0.49994870
   0.50000000  0.50000000 -0.00005130
   0.50000000  0.50000000  0.49994870
  -0.00000114  0.00000114  0.25008231
   0.00000114 -0.00000114  0.75008229
   0.99999885  0.50000114  0.25008231
   0.00000114  0.49999885  0.75008229
   0.49999886  0.00000114  0.25008231
   0.50000114 -0.00000114  0.75008229
   0.49999885  0.50000114  0.25008231
   0.50000114  0.49999885  0.75008229
   0.41787331  0.08212666  0.10051317
   0.41787570  0.33574775  0.10051248
   0.16425227  0.08212427  0.10051248
   0.08212667  0.41787334  0.60051319
   0.08212427  0.16425228  0.60051250
   0.33574776  0.41787573  0.60051250
   0.08213906  0.41786094  0.89943665
   0.33572298  0.41786335  0.89943734
   0.08213665  0.16427705  0.89943734
   0.41786092  0.08213905  0.39943660
   0.16427705  0.08213665  0.39943729
   0.41786332  0.33572297  0.39943729
   0.41787331  0.58212666  0.10051317
   0.41787573  0.83574772  0.10051248
   0.16425226  0.58212426  0.10051248
   0.08212666  0.91787328  0.60051319
   0.08212427  0.66425227  0.60051250
   0.33574773  0.91787568  0.60051250
   0.08213906  0.91786089  0.89943665
   0.33572295  0.91786330  0.89943734
   0.08213665  0.66427705  0.89943734
   0.41786091  0.58213905  0.39943660
   0.16427704  0.58213664  0.39943729
   0.41786335  0.83572294  0.39943729
   0.91787331  0.08212666  0.10051317
   0.91787570  0.33574775  0.10051248
   0.66425226  0.08212427  0.10051248
   0.58212669  0.41787334  0.60051319
   0.58212427  0.16425228  0.60051250
   0.83574769  0.41787573  0.60051250
   0.58213908  0.41786094  0.89943665
   0.83572291  0.41786335  0.89943734
   0.58213665  0.16427705  0.89943734
   0.91786092  0.08213905  0.39943660
   0.66427704  0.08213665  0.39943729
   0.91786332  0.33572297  0.39943729
   0.91787331  0.58212666  0.10051317
   0.91787573  0.83574772  0.10051248
   0.66425226  0.58212426  0.10051248
   0.58212666  0.91787328  0.60051319
   0.58212429  0.66425227  0.60051250
   0.83574767  0.91787568  0.60051250
   0.58213906  0.91786089  0.89943665
   0.83572289  0.91786330  0.89943734
   0.58213667  0.66427705  0.89943734
   0.91786091  0.58213905  0.39943660
   0.66427704  0.58213664  0.39943729
   0.91786335  0.83572294  0.39943729
   0.33333116  0.16666883  0.25024028
   0.16666884  0.33333118  0.75024032
   0.33333116  0.66666884  0.25024028
   0.16666885  0.83333115  0.75024032
   0.83333107  0.16666883  0.25024028
   0.66666885  0.33333118  0.75024032
   0.83333112  0.66666884  0.25024028
   0.66666887  0.83333115  0.75024032
   0.16666652  0.33333350  0.02780758
   0.33333348  0.16666651  0.52780758
   0.33333348  0.16666651  0.97212815
   0.16666652  0.33333350  0.47212815
   0.16666654  0.83333347  0.02780758
   0.33333348  0.66666652  0.52780758
   0.33333348  0.66666652  0.97212815
   0.16666654  0.83333347  0.47212815
   0.66666653  0.33333350  0.02780758
   0.83333339  0.16666651  0.52780758
   0.83333339  0.16666651  0.97212815
   0.66666653  0.33333350  0.47212815
   0.66666656  0.83333347  0.02780758
   0.83333344  0.66666652  0.52780758
   0.83333344  0.66666652  0.97212815
   0.66666656  0.83333347  0.47212815
  -0.00000047  0.00000047  0.15570643
   0.00000047 -0.00000047  0.65570641
   0.00000048 -0.00000048  0.84438041
  -0.00000048  0.00000048  0.34438034
   0.99999953  0.50000047  0.15570643
   0.00000047  0.49999953  0.65570641
   0.00000047  0.49999952  0.84438041
   0.99999952  0.50000047  0.34438034
   0.49999953  0.00000047  0.15570643
   0.50000047 -0.00000047  0.65570641
   0.50000048 -0.00000048  0.84438041
   0.49999952  0.00000048  0.34438034
   0.49999953  0.50000047  0.15570643
   0.50000047  0.49999953  0.65570641
   0.50000047  0.49999952  0.84438041
   0.49999952  0.50000047  0.34438034
   0.16666906  0.33333095  0.93461487
   0.33333093  0.16666906  0.43461487
   0.33333093  0.16666906  0.06544030
   0.16666906  0.33333095  0.56544029
   0.16666908  0.83333092  0.93461487
   0.33333093  0.66666907  0.43461487
   0.33333094  0.66666906  0.06544030
   0.16666908  0.83333093  0.56544029
   0.66666907  0.33333095  0.93461487
   0.83333084  0.16666906  0.43461487
   0.83333085  0.16666906  0.06544030
   0.66666907  0.33333095  0.56544029
   0.66666910  0.83333092  0.93461487
   0.83333089  0.66666907  0.43461487
   0.83333089  0.66666906  0.06544030
   0.66666910  0.83333093  0.56544029
   0.08746275  0.41253724  0.25006360
   0.08745810  0.17492342  0.25006348
   0.32507660  0.41254188  0.25006348
   0.41253723  0.08746273  0.75006353
   0.41254187  0.32507659  0.75006341
   0.17492341  0.08745809  0.75006341
   0.08746272  0.91253726  0.25006360
   0.08745807  0.67492338  0.25006348
   0.32507659  0.91254190  0.25006348
   0.41253723  0.58746273  0.75006353
   0.41254188  0.82507661  0.75006341
   0.17492341  0.58745809  0.75006341
   0.58746276  0.41253724  0.25006360
   0.58745809  0.17492342  0.25006348
   0.82507662  0.41254188  0.25006348
   0.91253727  0.08746273  0.75006353
   0.91254191  0.32507659  0.75006341
   0.67492341  0.08745809  0.75006341
   0.58746272  0.91253726  0.25006360
   0.58745807  0.67492338  0.25006348
   0.82507659  0.91254190  0.25006348
   0.91253727  0.58746273  0.75006353
   0.91254192  0.82507661  0.75006341
   0.67492341  0.58745809  0.75006341
   0.07142874  0.42857125  0.05778976
   0.07142531  0.14285194  0.05779082
   0.35714807  0.42857469  0.05779082
   0.42857124  0.07142875  0.55778975
   0.42857469  0.35714806  0.55779081
   0.14285194  0.07142531  0.55779081
   0.42857211  0.07142788  0.94226408
   0.14285021  0.07142444  0.94226302
   0.42857556  0.35714980  0.94226302
   0.07142787  0.42857212  0.44226408
   0.35714980  0.42857556  0.44226302
   0.07142444  0.14285020  0.44226302
   0.07142872  0.92857125  0.05778976
   0.07142528  0.64285188  0.05779082
   0.35714804  0.92857469  0.05779082
   0.42857126  0.57142874  0.55778975
   0.42857469  0.85714806  0.55779081
   0.14285194  0.57142531  0.55779081
   0.42857213  0.57142787  0.94226408
   0.14285021  0.57142444  0.94226302
   0.42857556  0.85714979  0.94226302
   0.07142785  0.92857212  0.44226408
   0.35714978  0.92857555  0.44226302
   0.07142442  0.64285015  0.44226302
   0.57142872  0.42857125  0.05778976
   0.57142531  0.14285194  0.05779082
   0.85714809  0.42857469  0.05779082
   0.92857132  0.07142875  0.55778975
   0.92857473  0.35714806  0.55779081
   0.64285191  0.07142531  0.55779081
   0.92857219  0.07142788  0.94226408
   0.64285017  0.07142444  0.94226302
   0.92857560  0.35714980  0.94226302
   0.57142785  0.42857212  0.44226408
   0.85714982  0.42857556  0.44226302
   0.57142444  0.14285020  0.44226302
   0.57142872  0.92857125  0.05778976
   0.57142528  0.64285188  0.05779082
   0.85714804  0.92857469  0.05779082
   0.92857128  0.57142874  0.55778975
   0.92857473  0.85714806  0.55779081
   0.64285191  0.57142531  0.55779081
   0.92857215  0.57142787  0.94226408
   0.64285017  0.57142444  0.94226302
   0.92857560  0.85714979  0.94226302
   0.57142785  0.92857212  0.44226408
   0.85714978  0.92857555  0.44226302
   0.57142442  0.64285015  0.44226302
   0.25227273  0.24772726  0.15307070
   0.25227198  0.00454380  0.15307057
   0.49545622  0.24772802  0.15307057
   0.24772727  0.25227273  0.65307067
   0.24772802  0.49545619  0.65307053
   0.00454380  0.25227198  0.65307053
   0.24762590  0.25237410  0.84701434
   0.00474658  0.25237335  0.84701448
   0.24762665  0.49525342  0.84701448
   0.25237410  0.24762590  0.34701429
   0.49525344  0.24762665  0.34701444
   0.25237335  0.00474657  0.34701444
   0.25227271  0.74772726  0.15307070
   0.25227198  0.50454380  0.15307057
   0.49545617  0.74772801  0.15307057
   0.24772729  0.75227273  0.65307067
   0.24772799  0.99545614  0.65307053
   0.00454382  0.75227198  0.65307053
   0.24762592  0.75237409  0.84701434
   0.00474660  0.75237335  0.84701448
   0.24762662  0.99525336  0.84701448
   0.25237407  0.74762590  0.34701429
   0.49525340  0.74762664  0.34701444
   0.25237335  0.50474658  0.34701444
   0.75227271  0.24772726  0.15307070
   0.75227194  0.00454380  0.15307057
   0.99545622  0.24772802  0.15307057
   0.74772733  0.25227273  0.65307067
   0.74772806  0.49545619  0.65307053
   0.50454382  0.25227198  0.65307053
   0.74762597  0.25237410  0.84701434
   0.50474660  0.25237335  0.84701448
   0.74762669  0.49525342  0.84701448
   0.75237407  0.24762590  0.34701429
   0.99525344  0.24762665  0.34701444
   0.75237331  0.00474657  0.34701444
   0.75227267  0.74772726  0.15307070
   0.75227194  0.50454380  0.15307057
   0.99545617  0.74772801  0.15307057
   0.74772733  0.75227273  0.65307067
   0.74772803  0.99545614  0.65307053
   0.50454382  0.75227198  0.65307053
   0.74762597  0.75237409  0.84701434
   0.50474660  0.75237335  0.84701448
   0.74762666  0.99525336  0.84701448
   0.75237403  0.74762590  0.34701429
   0.99525340  0.74762664  0.34701444
   0.75237331  0.50474658  0.34701444
   0.33333554  0.16666445  0.81662087
   0.16666445  0.33333556  0.31662087
   0.16666455  0.33333546  0.18373368
   0.33333544  0.16666455  0.68373366
   0.33333555  0.66666446  0.81662087
   0.16666447  0.83333553  0.31662087
   0.16666457  0.83333543  0.18373368
   0.33333544  0.66666456  0.68373366
   0.83333546  0.16666445  0.81662087
   0.66666446  0.33333556  0.31662087
   0.66666456  0.33333546  0.18373368
   0.83333535  0.16666455  0.68373366
   0.83333550  0.66666446  0.81662087
   0.66666449  0.83333553  0.31662087
   0.66666459  0.83333543  0.18373368
   0.83333540  0.66666456  0.68373366
Direct configuration=     3
  -0.00000000  0.00000000 -0.00002615
   0.00000000 -0.00000000  0.49997385
   1.00000000  0.50000000 -0.00002615
   1.00000000  0.50000000  0.49997385
   0.50000000  0.00000000 -0.00002615
   0.50000000 -0.00000000  0.49997385
   0.50000000  0.50000000 -0.00002615
   0.50000000  0.50000000  0.49997385
  -0.00000058  0.00000058  0.25004195
   0.00000058 -0.00000058  0.75004193
   0.99999942  0.50000058  0.25004195
   0.00000058  0.49999941  0.75004193
   0.49999942  0.00000058  0.25004195
   0.50000058 -0.00000058  0.75004193
   0.49999942  0.50000058  0.25004195
   0.50000058  0.49999941  0.75004193
   0.41690581  0.08309416  0.10520365
   0.41690703  0.33381223  0.10520330
   0.16618779  0.08309294  0.10520330
   0.08309417  0.41690584  0.60520367
   0.08309294  0.16618779  0.60520332
   0.33381224  0.41690706  0.60520332
   0.08310049  0.41689952  0.89477078
   0.33379961  0.41690075  0.89477114
   0.08309925  0.16620042  0.89477114
   0.41689949  0.08310048  0.39477074
   0.16620042  0.08309925  0.39477109
   0.41690072  0.33379960  0.39477109
   0.41690581  0.58309416  0.10520365
   0.41690706  0.83381220  0.10520330
   0.16618778  0.58309294  0.10520330
   0.08309416  0.91690578  0.60520367
   0.08309294  0.66618779  0.60520332
   0.33381222  0.91690700  0.60520332
   0.08310048  0.91689947  0.89477078
   0.33379959  0.91690069  0.89477114
   0.08309925  0.66620042  0.89477114
   0.41689949  0.58310048  0.39477074
   0.16620041  0.58309925  0.39477109
   0.41690075  0.83379957  0.39477109
   0.91690581  0.08309416  0.10520365
   0.91690703  0.33381223  0.10520330
   0.66618778  0.08309294  0.10520330
   0.58309419  0.41690584  0.60520367
   0.58309294  0.16618779  0.60520332
   0.83381218  0.41690706  0.60520332
   0.58310051  0.41689952  0.89477078
   0.83379955  0.41690075  0.89477114
   0.58309925  0.16620042  0.89477114
   0.91689949  0.08310048  0.39477074
   0.66620041  0.08309925  0.39477109
   0.91690072  0.33379960  0.39477109
   0.91690581  0.58309416  0.10520365
   0.91690706  0.83381220  0.10520330
   0.66618778  0.58309294  0.10520330
   0.58309416  0.91690578  0.60520367
   0.58309296  0.66618779  0.60520332
   0.83381215  0.91690700  0.60520332
   0.58310048  0.91689947  0.89477078
   0.83379952  0.91690069  0.89477114
   0.58309927  0.66620042  0.89477114
   0.91689949  0.58310048  0.39477074
   0.66620041  0.58309925  0.39477109
   0.91690075  0.83379957  0.39477109
   0.33333059  0.16666940  0.25020582
   0.16666941  0.33333061  0.75020586
   0.33333059  0.66666941  0.25020582
   0.16666943  0.83333058  0.75020586
   0.83333050  0.16666940  0.25020582
   0.66666942  0.33333061  0.75020586
   0.83333055  0.66666941  0.25020582
   0.66666945  0.83333058  0.75020586
   0.16666823  0.33333179  0.02832847
   0.33333177  0.16666822  0.52832847
   0.33333177  0.16666822  0.97163877
   0.16666823  0.33333179  0.47163877
   0.16666825  0.83333176  0.02832847
   0.33333177  0.66666823  0.52832847
   0.33333177  0.66666823  0.97163877
   0.16666824  0.83333176  0.47163877
   0.66666824  0.33333179  0.02832847
   0.83333168  0.16666822  0.52832847
   0.83333168  0.16666822  0.97163877
   0.66666824  0.33333179  0.47163877
   0.66666827  0.83333176  0.02832847
   0.83333173  0.66666823  0.52832847
   0.83333173  0.66666823  0.97163877
   0.66666827  0.83333176  0.47163877
  -0.00000024  0.00000024  0.15357544
   0.00000024 -0.00000024  0.65357542
   0.00000024 -0.00000024  0.84646886
  -0.00000024  0.00000024  0.34646879
   0.99999976  0.50000024  0.15357544
   0.00000024  0.49999976  0.65357542
   0.00000024  0.49999975  0.84646886
   0.99999976  0.50000024  0.34646879
   0.49999976  0.00000024  0.15357544
   0.50000024 -0.00000024  0.65357542
   0.50000024 -0.00000024  0.84646886
   0.49999976  0.00000024  0.34646879
   0.49999976  0.50000024  0.15357544
   0.50000024  0.49999976  0.65357542
   0.50000024  0.49999975  0.84646886
   0.49999976  0.50000024  0.34646879
   0.16666953  0.33333049  0.94011840
   0.33333047  0.16666952  0.44011840
   0.33333047  0.16666952  0.05990973
   0.16666952  0.33333049  0.55990972
   0.16666954  0.83333046  0.94011840
   0.33333047  0.66666953  0.44011840
   0.33333048  0.66666953  0.05990973
   0.16666954  0.83333046  0.55990972
   0.66666954  0.33333049  0.94011840
   0.83333038  0.16666952  0.44011840
   0.83333039  0.16666952  0.05990973
   0.66666953  0.33333049  0.55990972
   0.66666956  0.83333046  0.94011840
   0.83333043  0.66666953  0.44011840
   0.83333043  0.66666953  0.05990973
   0.66666956  0.83333046  0.55990972
   0.08911857  0.41088142  0.25019421
   0.08911620  0.17824098  0.25019415
   0.32175904  0.41088378  0.25019415
   0.41088141  0.08911856  0.75019414
   0.41088377  0.32175903  0.75019408
   0.17824097  0.08911619  0.75019408
   0.08911855  0.91088144  0.25019421
   0.08911617  0.67824094  0.25019415
   0.32175903  0.91088381  0.25019415
   0.41088141  0.58911855  0.75019414
   0.41088378  0.82175905  0.75019408
   0.17824097  0.58911619  0.75019408
   0.58911858  0.41088142  0.25019421
   0.58911619  0.17824098  0.25019415
   0.82175906  0.41088378  0.25019415
   0.91088145  0.08911856  0.75019414
   0.91088381  0.32175903  0.75019408
   0.67824097  0.08911619  0.75019408
   0.58911855  0.91088144  0.25019421
   0.58911617  0.67824094  0.25019415
   0.82175903  0.91088381  0.25019415
   0.91088145  0.58911855  0.75019414
   0.91088382  0.82175905  0.75019408
   0.67824097  0.58911619  0.75019408
   0.07440539  0.42559460  0.05536296
   0.07440364  0.14880795  0.05536350
   0.35119205  0.42559636  0.05536350
   0.42559459  0.07440539  0.55536295
   0.42559636  0.35119204  0.55536349
   0.14880796  0.07440364  0.55536349
   0.42559503  0.07440495  0.94466448
   0.14880708  0.07440320  0.94466394
   0.42559680  0.35119293  0.94466394
   0.07440494  0.42559505  0.44466448
   0.35119293  0.42559680  0.44466394
   0.07440320  0.14880707  0.44466394
   0.07440536  0.92559460  0.05536296
   0.07440361  0.64880790  0.05536350
   0.35119203  0.92559635  0.05536350
   0.42559461  0.57440539  0.55536295
   0.42559636  0.85119204  0.55536349
   0.14880796  0.57440364  0.55536349
   0.42559505  0.57440495  0.94466448
   0.14880707  0.57440320  0.94466394
   0.42559680  0.85119292  0.94466394
   0.07440492  0.92559504  0.44466448
   0.35119291  0.92559680  0.44466394
   0.07440317  0.64880702  0.44466394
   0.57440537  0.42559460  0.05536296
   0.57440364  0.14880795  0.05536350
   0.85119207  0.42559636  0.05536350
   0.92559468  0.07440539  0.55536295
   0.92559640  0.35119204  0.55536349
   0.64880793  0.07440364  0.55536349
   0.92559512  0.07440495  0.94466448
   0.64880704  0.07440320  0.94466394
   0.92559684  0.35119293  0.94466394
   0.57440492  0.42559505  0.44466448
   0.85119296  0.42559680  0.44466394
   0.57440320  0.14880707  0.44466394
   0.57440536  0.92559460  0.05536296
   0.57440361  0.64880790  0.05536350
   0.85119203  0.92559635  0.05536350
   0.92559463  0.57440539  0.55536295
   0.92559640  0.85119204  0.55536349
   0.64880793  0.57440364  0.55536349
   0.92559507  0.57440495  0.94466448
   0.64880704  0.57440320  0.94466394
   0.92559684  0.85119292  0.94466394
   0.57440492  0.92559504  0.44466448
   0.85119291  0.92559680  0.44466394
   0.57440317  0.64880702  0.44466394
   0.25201154  0.24798845  0.15165343
   0.25201116  0.00402223  0.15165336
   0.49597778  0.24798884  0.15165336
   0.24798846  0.25201154  0.65165340
   0.24798884  0.49597776  0.65165333
   0.00402224  0.25201116  0.65165333
   0.24793679  0.25206321  0.84838993
   0.00412559  0.25206283  0.84839000
   0.24793717  0.49587440  0.84839000
   0.25206321  0.24793679  0.34838989
   0.49587443  0.24793717  0.34838996
   0.25206283  0.00412559  0.34838996
   0.25201152  0.74798845  0.15165343
   0.25201116  0.50402224  0.15165336
   0.49597774  0.74798883  0.15165336
   0.24798848  0.75201154  0.65165340
   0.24798881  0.99597770  0.65165333
   0.00402226  0.75201116  0.65165333
   0.24793681  0.75206321  0.84838993
   0.00412561  0.75206283  0.84839000
   0.24793714  0.99587435  0.84839000
   0.25206319  0.74793678  0.34838989
   0.49587438  0.74793716  0.34838996
   0.25206283  0.50412559  0.34838996
   0.75201152  0.24798845  0.15165343
   0.75201112  0.00402223  0.15165336
   0.99597778  0.24798884  0.15165336
   0.74798852  0.25201154  0.65165340
   0.74798888  0.49597776  0.65165333
   0.50402226  0.25201116  0.65165333
   0.74793685  0.25206321  0.84838993
   0.50412562  0.25206283  0.84839000
   0.74793721  0.49587440  0.84839000
   0.75206319  0.24793679  0.34838989
   0.99587443  0.24793717  0.34838996
   0.75206279  0.00412559  0.34838996
   0.75201148  0.74798845  0.15165343
   0.75201112  0.50402224  0.15165336
   0.99597774  0.74798883  0.15165336
   0.74798852  0.75201154  0.65165340
   0.74798885  0.99597770  0.65165333
   0.50402226  0.75201116  0.65165333
   0.74793685  0.75206321  0.84838993
   0.50412561  0.75206283  0.84839000
   0.74793718  0.99587435  0.84839000
   0.75206314  0.74793678  0.34838989
   0.99587438  0.74793716  0.34838996
   0.75206279  0.50412559  0.34838996
   0.33333282  0.16666717  0.81288446
   0.16666717  0.33333284  0.31288446
   0.16666723  0.33333279  0.18729625
   0.33333277  0.16666722  0.68729623
   0.33333282  0.66666718  0.81288446
   0.16666719  0.83333281  0.31288446
   0.16666724  0.83333276  0.18729625
   0.33333277  0.66666723  0.68729623
   0.83333273  0.16666717  0.81288446
   0.66666718  0.33333284  0.31288446
   0.66666724  0.33333279  0.18729625
   0.83333268  0.16666722  0.68729623
   0.83333278  0.66666718  0.81288446
   0.66666721  0.83333281  0.31288446
   0.66666727  0.83333276  0.18729625
   0.83333273  0.66666723  0.68729623
Direct configuration=     4
   0.00000000 -0.00000000 -0.00000331
  -0.00000000  0.00000000  0.49999669
   1.00000000  0.50000000 -0.00000331
   1.00000000  0.50000000  0.49999669
   0.50000000 -0.00000000 -0.00000331
   0.50000000  0.00000000  0.49999669
   0.50000000  0.50000000 -0.00000331
   0.50000000  0.50000000  0.49999669
  -0.00000109  0.00000109  0.25004785
   0.00000109 -0.00000109  0.75004783
   0.99999891  0.50000109  0.25004785
   0.00000109  0.49999891  0.75004783