Sat Aug  7 17:44:54 MST 2021
 running on   90 total cores
 distrk:  each k-point on   90 cores,    1 groups
 distr:  one band on    9 cores,   10 groups
 using from now: INCAR     
 vasp.5.4.4.18Apr17-6-g9f103f2a35 (build Sep 23 2020 14:43:34) complex          
  
 POSCAR found type information on POSCAR  Al Ca Mg O  Ti
 POSCAR found :  5 types and     256 ions
 scaLAPACK will be used

 ----------------------------------------------------------------------------- 
|                                                                             |
|  ADVICE TO THIS USER RUNNING 'VASP/VAMP'   (HEAR YOUR MASTER'S VOICE ...):  |
|                                                                             |
|      You have a (more or less) 'large supercell' and for larger cells       |
|      it might be more efficient to use real space projection operators      |
|      So try LREAL= Auto  in the INCAR   file.                               |
|      Mind: If you want to do a very accurate calculations keep the          |
|      reciprocal projection scheme          (i.e. LREAL=.FALSE.)             |
|                                                                             |
 ----------------------------------------------------------------------------- 

 LDA part: xc-table for Pade appr. of Perdew
 POSCAR, INCAR and KPOINTS ok, starting setup
 FFT: planning ...
 WAVECAR not read
 entering main loop
       N       E                     dE             d eps       ncg     rms          rms(c)
DAV:   1     0.187129703537E+05    0.18713E+05   -0.47573E+05153620   0.156E+03
DAV:   2     0.189744376246E+04   -0.16816E+05   -0.14221E+05149520   0.450E+02
DAV:   3    -0.181253953783E+04   -0.37100E+04   -0.34842E+04142120   0.209E+02
DAV:   4    -0.213966089386E+04   -0.32712E+03   -0.31894E+03176950   0.694E+01
DAV:   5    -0.216100315778E+04   -0.21342E+02   -0.21236E+02219610   0.181E+01    0.133E+02
DAV:   6    -0.165249831753E+04    0.50850E+03   -0.12856E+03200800   0.519E+01    0.532E+01
DAV:   7    -0.168078171306E+04   -0.28283E+02   -0.22077E+02174450   0.226E+01    0.450E+01
DAV:   8    -0.165794816763E+04    0.22834E+02   -0.33840E+01167670   0.121E+01    0.362E+01
DAV:   9    -0.170280756195E+04   -0.44859E+02   -0.52641E+01175930   0.106E+01    0.226E+01
DAV:  10    -0.180005466975E+04   -0.97247E+02   -0.63569E+01157340   0.900E+00    0.176E+01
DAV:  11    -0.191133801834E+04   -0.11128E+03   -0.16825E+02174720   0.134E+01    0.873E+00
DAV:  12    -0.192150402303E+04   -0.10166E+02   -0.22486E+01171170   0.637E+00    0.593E+00
DAV:  13    -0.192229640870E+04   -0.79239E+00   -0.57768E+00193170   0.352E+00    0.343E+00
DAV:  14    -0.192264968413E+04   -0.35328E+00   -0.15093E+00166260   0.167E+00    0.213E+00
DAV:  15    -0.192266726288E+04   -0.17579E-01   -0.36265E-01197380   0.876E-01    0.786E-01
DAV:  16    -0.192270185146E+04   -0.34589E-01   -0.97988E-02168090   0.456E-01    0.510E-01
DAV:  17    -0.192271497087E+04   -0.13119E-01   -0.20656E-02158110   0.260E-01    0.337E-01
DAV:  18    -0.192271674231E+04   -0.17714E-02   -0.11520E-02181260   0.189E-01    0.135E-01
DAV:  19    -0.192271804063E+04   -0.12983E-02   -0.90827E-03189260   0.134E-01    0.134E-01
DAV:  20    -0.192271781125E+04    0.22937E-03   -0.11196E-03192270   0.565E-02    0.708E-02
DAV:  21    -0.192271782520E+04   -0.13950E-04   -0.55278E-04198060   0.307E-02    0.182E-02
DAV:  22    -0.192271782455E+04    0.64982E-06   -0.67326E-05166820   0.180E-02    0.991E-03
DAV:  23    -0.192271782224E+04    0.23102E-05   -0.29111E-05193770   0.788E-03    0.916E-03
DAV:  24    -0.192271781855E+04    0.36976E-05   -0.71541E-06196190   0.408E-03    0.334E-03
DAV:  25    -0.192271781743E+04    0.11122E-05   -0.29136E-06193670   0.207E-03    0.260E-03
DAV:  26    -0.192271781723E+04    0.19849E-06   -0.38271E-07144570   0.120E-03    0.221E-03
DAV:  27    -0.192271781698E+04    0.25351E-06   -0.34225E-07133220   0.107E-03    0.119E-03
DAV:  28    -0.192271781699E+04   -0.85565E-08   -0.15408E-07 95990   0.651E-04
   1 F= -.19227178E+04 E0= -.19227178E+04  d E =-.192272E+04  mag=     0.0000
 curvature:   0.00 expect dE= 0.000E+00 dE for cont linesearch  0.000E+00
 trial: gam= 0.00000 g(F)=  0.000E+00 g(S)=  0.146E+00 ort = 0.000E+00 (trialstep = 0.100E+01)
 search vector abs. value=  0.146E+00
 bond charge predicted
       N       E                     dE             d eps       ncg     rms          rms(c)
DAV:   1    -0.192334427475E+04   -0.62646E+00   -0.12727E+01182290   0.486E+00    0.592E+00
DAV:   2    -0.192281482967E+04    0.52945E+00   -0.25556E+00203880   0.235E+00    0.180E+00
DAV:   3    -0.192275688885E+04    0.57941E-01   -0.33362E-01195150   0.153E+00    0.105E+00
DAV:   4    -0.192273098041E+04    0.25908E-01   -0.36296E-02189020   0.557E-01    0.291E-01
DAV:   5    -0.192273026874E+04    0.71167E-03   -0.19731E-02206110   0.199E-01    0.147E-01
DAV:   6    -0.192273006200E+04    0.20674E-03   -0.15995E-03187560   0.624E-02    0.101E-01
DAV:   7    -0.192272998477E+04    0.77231E-04   -0.63085E-04192560   0.386E-02    0.424E-02
DAV:   8    -0.192273000065E+04   -0.15882E-04   -0.22366E-04195260   0.225E-02    0.168E-02
DAV:   9    -0.192273001727E+04   -0.16620E-04   -0.50101E-05186450   0.106E-02    0.156E-02
DAV:  10    -0.192273002874E+04   -0.11471E-04   -0.22548E-05216710   0.856E-03    0.594E-03
DAV:  11    -0.192273003231E+04   -0.35687E-05   -0.10166E-05185350   0.401E-03    0.570E-03
DAV:  12    -0.192273003689E+04   -0.45810E-05   -0.36018E-06198510   0.305E-03    0.131E-03
DAV:  13    -0.192273003732E+04   -0.43298E-06   -0.63296E-07145130   0.105E-03    0.106E-03
DAV:  14    -0.192273003794E+04   -0.61850E-06   -0.75290E-08 91830   0.493E-04    0.490E-04
DAV:  15    -0.192273003793E+04    0.51805E-08   -0.42427E-08 88480   0.394E-04
   2 F= -.19227300E+04 E0= -.19227300E+04  d E =-.122209E-01  mag=     0.0000
 trial-energy change:   -0.012221  1 .order   -0.013549   -0.145917    0.118819
 step:   0.5437(harm=  0.5512)  dis= 0.00000  next Energy= -1922.757272 (dE=-0.395E-01)
 bond charge predicted
       N       E                     dE             d eps       ncg     rms          rms(c)
DAV:   1    -0.192288595828E+04   -0.15592E+00   -0.26522E+00183560   0.222E+00    0.270E+00
DAV:   2    -0.192277526794E+04    0.11069E+00   -0.53740E-01203040   0.106E+00    0.832E-01
DAV:   3    -0.192276386990E+04    0.11398E-01   -0.70748E-02194120   0.722E-01    0.499E-01
DAV:   4    -0.192275774552E+04    0.61244E-02   -0.74428E-03187210   0.258E-01    0.136E-01
DAV:   5    -0.192275750353E+04    0.24200E-03   -0.44376E-03206380   0.917E-02    0.777E-02
DAV:   6    -0.192275742371E+04    0.79818E-04   -0.35595E-04181350   0.300E-02    0.515E-02
DAV:   7    -0.192275738616E+04    0.37551E-04   -0.14660E-04193070   0.187E-02    0.243E-02
DAV:   8    -0.192275736655E+04    0.19605E-04   -0.60386E-05205920   0.115E-02    0.874E-03
DAV:   9    -0.192275735969E+04    0.68604E-05   -0.11640E-05193460   0.490E-03    0.828E-03
DAV:  10    -0.192275735175E+04    0.79418E-05   -0.64262E-06206490   0.439E-03    0.280E-03
DAV:  11    -0.192275735051E+04    0.12363E-05   -0.21813E-06172640   0.186E-03    0.266E-03
DAV:  12    -0.192275734791E+04    0.25996E-05   -0.66884E-07162270   0.130E-03    0.613E-04
DAV:  13    -0.192275734783E+04    0.81316E-07   -0.15632E-07 88620   0.644E-04
   3 F= -.19227573E+04 E0= -.19227573E+04  d E =-.395308E-01  mag=     0.0000
 curvature:  -0.28 expect dE=-0.125E-04 dE for cont linesearch -0.125E-04
 ZBRENT: interpolating
 opt :   0.5534  next Energy= -1922.757360 (dE=-0.395E-01)
 bond charge predicted
       N       E                     dE             d eps       ncg     rms          rms(c)
DAV:   1    -0.192275739265E+04   -0.44740E-04   -0.11951E-03182600   0.469E-02    0.573E-02
DAV:   2    -0.192275734880E+04    0.43856E-04   -0.24197E-04203680   0.226E-02    0.175E-02
DAV:   3    -0.192275734323E+04    0.55706E-05   -0.31547E-05194550   0.151E-02    0.105E-02
DAV:   4    -0.192275734145E+04    0.17749E-05   -0.33685E-06187570   0.546E-03    0.288E-03
DAV:   5    -0.192275734306E+04   -0.16039E-05   -0.19536E-06205820   0.195E-03    0.158E-03
DAV:   6    -0.192275734324E+04   -0.18287E-06   -0.11916E-07 98150   0.629E-04    0.107E-03
DAV:   7    -0.192275734353E+04   -0.29008E-06   -0.81764E-08 80360   0.549E-04    0.440E-04
DAV:   8    -0.192275734377E+04   -0.24065E-06   -0.56065E-08 79210   0.447E-04    0.985E-05
DAV:   9    -0.192275734392E+04   -0.15108E-06   -0.31191E-08 78360   0.288E-04    0.156E-04
DAV:  10    -0.192275734404E+04   -0.11775E-06   -0.49631E-09 78180   0.209E-04    0.382E-05
DAV:  11    -0.192275734409E+04   -0.48822E-07    0.10246E-09 77780   0.678E-05
   4 F= -.19227573E+04 E0= -.19227573E+04  d E =-.395271E-01  mag=     0.0000
 curvature:  -0.27 expect dE=-0.157E-07 dE for cont linesearch -0.157E-07
 trial: gam=-0.00063 g(F)=  0.000E+00 g(S)=  0.571E-07 ort = 0.913E-04 (trialstep = 0.911E+00)
 search vector abs. value=  0.100E-09
 reached required accuracy - stopping structural energy minimisation
Sun Aug  8 18:02:08 MST 2021
Detailed performance metrics for this job will be available at https://metrics.hpc.arizona.edu/#job_viewer?action=show&realm=SUPREMM&resource_id=73&local_job_id=1717277 by 8am on 2021/08/09.
