Ca2Al24O38                              
           1
    11.465310    0.000000    0.000000
    -5.732655    9.929250    0.000000
     0.000000    0.000000   22.419979
   Al   Ca   Mg   O    Ti
  64   8  16 152  16
Direct configuration=     1
   1.00000000  0.00000000  0.00012785
   0.00000000  1.00000000  0.50012785
   0.99999999  0.50000000  0.00012785
   0.00000000  0.49999999  0.50012785
   0.50000000  0.00000000  0.00012785
   0.50000000  1.00000000  0.50012785
   0.49999999  0.50000000  0.00012785
   0.50000000  0.49999999  0.50012785
   0.00000558  0.99999442  0.24667534
   0.99999442  0.00000558  0.74667532
   0.00000557  0.49999442  0.24667534
   0.99999442  0.50000557  0.74667532
   0.50000558  0.99999442  0.24667534
   0.49999442  0.00000558  0.74667532
   0.50000557  0.49999442  0.24667534
   0.49999442  0.50000557  0.74667532
   0.41723726  0.08276271  0.10598201
   0.41723798  0.33447233  0.10598030
   0.16552769  0.08276199  0.10598030
   0.08276271  0.41723729  0.60598204
   0.08276199  0.16552769  0.60598032
   0.33447234  0.41723800  0.60598032
   0.08238912  0.41761089  0.89408410
   0.33521958  0.41761162  0.89408578
   0.08238838  0.16478045  0.89408578
   0.41761086  0.08238911  0.39408405
   0.16478045  0.08238838  0.39408573
   0.41761159  0.33521957  0.39408573
   0.41723726  0.58276270  0.10598201
   0.41723800  0.83447230  0.10598030
   0.16552767  0.58276199  0.10598030
   0.08276271  0.91723724  0.60598204
   0.08276199  0.66552769  0.60598032
   0.33447232  0.91723795  0.60598032
   0.08238911  0.91761083  0.89408410
   0.33521956  0.91761156  0.89408578
   0.08238838  0.66478045  0.89408578
   0.41761086  0.58238911  0.39408405
   0.16478043  0.58238838  0.39408573
   0.41761162  0.83521954  0.39408573
   0.91723726  0.08276271  0.10598201
   0.91723798  0.33447233  0.10598030
   0.66552768  0.08276199  0.10598030
   0.58276274  0.41723729  0.60598204
   0.58276199  0.16552769  0.60598032
   0.83447228  0.41723800  0.60598032
   0.58238914  0.41761089  0.89408410
   0.83521952  0.41761162  0.89408578
   0.58238838  0.16478045  0.89408578
   0.91761086  0.08238911  0.39408405
   0.66478044  0.08238838  0.39408573
   0.91761159  0.33521957  0.39408573
   0.91723726  0.58276270  0.10598201
   0.91723800  0.83447230  0.10598030
   0.66552767  0.58276199  0.10598030
   0.58276271  0.91723724  0.60598204
   0.58276201  0.66552769  0.60598032
   0.83447225  0.91723795  0.60598032
   0.58238911  0.91761083  0.89408410
   0.83521949  0.91761156  0.89408578
   0.58238840  0.66478045  0.89408578
   0.91761086  0.58238911  0.39408405
   0.66478043  0.58238838  0.39408573
   0.91761162  0.83521954  0.39408573
   0.33333195  0.16666803  0.24964172
   0.16666804  0.33333198  0.74964176
   0.33333196  0.66666804  0.24964172
   0.16666806  0.83333195  0.74964176
   0.83333187  0.16666803  0.24964172
   0.66666805  0.33333198  0.74964176
   0.83333192  0.66666804  0.24964172
   0.66666808  0.83333195  0.74964176
   0.16666752  0.33333249  0.02588216
   0.33333247  0.16666752  0.52588216
   0.33333249  0.16666750  0.97409293
   0.16666750  0.33333251  0.47409293
   0.16666754  0.83333246  0.02588216
   0.33333247  0.66666753  0.52588216
   0.33333250  0.66666750  0.97409293
   0.16666752  0.83333249  0.47409293
   0.66666753  0.33333249  0.02588216
   0.83333238  0.16666752  0.52588216
   0.83333241  0.16666750  0.97409293
   0.66666751  0.33333251  0.47409293
   0.66666756  0.83333246  0.02588216
   0.83333243  0.66666753  0.52588216
   0.83333245  0.66666750  0.97409293
   0.66666754  0.83333249  0.47409293
   0.00000196  0.99999804  0.15401107
   0.99999804  0.00000196  0.65401105
   0.99999804  0.00000196  0.84762792
   0.00000196  0.99999804  0.34762785
   0.00000196  0.49999804  0.15401107
   0.99999804  0.50000196  0.65401105
   0.99999804  0.50000195  0.84762792
   0.00000195  0.49999804  0.34762785
   0.50000196  0.99999804  0.15401107
   0.49999804  0.00000196  0.65401105
   0.49999804  0.00000196  0.84762792
   0.50000196  0.99999804  0.34762785
   0.50000196  0.49999804  0.15401107
   0.49999804  0.50000196  0.65401105
   0.49999804  0.50000195  0.84762792
   0.50000195  0.49999804  0.34762785
   0.16666341  0.33333661  0.93761470
   0.33333659  0.16666340  0.43761470
   0.33333660  0.16666339  0.06238717
   0.16666339  0.33333662  0.56238715
   0.16666343  0.83333658  0.93761470
   0.33333659  0.66666341  0.43761470
   0.33333661  0.66666340  0.06238717
   0.16666341  0.83333659  0.56238715
   0.66666342  0.33333661  0.93761470
   0.83333650  0.16666340  0.43761470
   0.83333652  0.16666339  0.06238717
   0.66666340  0.33333662  0.56238715
   0.66666345  0.83333658  0.93761470
   0.83333655  0.66666341  0.43761470
   0.83333656  0.66666340  0.06238717
   0.66666343  0.83333659  0.56238715
   0.08976971  0.41023027  0.24977566
   0.08978442  0.17952163  0.24977568
   0.32047839  0.41021556  0.24977568
   0.41023026  0.08976970  0.74977559
   0.41021555  0.32047838  0.74977561
   0.17952161  0.08978441  0.74977561
   0.08976969  0.91023029  0.24977566
   0.08978439  0.67952159  0.24977568
   0.32047838  0.91021558  0.24977568
   0.41023026  0.58976970  0.74977559
   0.41021556  0.82047841  0.74977561
   0.17952161  0.58978441  0.74977561
   0.58976972  0.41023027  0.24977566
   0.58978441  0.17952163  0.24977568
   0.82047842  0.41021556  0.24977568
   0.91023031  0.08976970  0.74977559
   0.91021559  0.32047838  0.74977561
   0.67952161  0.08978441  0.74977561
   0.58976969  0.91023029  0.24977566
   0.58978439  0.67952159  0.24977568
   0.82047838  0.91021558  0.24977568
   0.91023031  0.58976970  0.74977559
   0.91021560  0.82047841  0.74977561
   0.67952161  0.58978441  0.74977561
   0.07391406  0.42608593  0.05578996
   0.07391158  0.14782582  0.05578797
   0.35217418  0.42608842  0.05578797
   0.42608592  0.07391406  0.55578994
   0.42608842  0.35217417  0.55578796
   0.14782583  0.07391158  0.55578796
   0.42601327  0.07398671  0.94502728
   0.14797119  0.07398428  0.94502924
   0.42601572  0.35202881  0.94502924
   0.07398671  0.42601329  0.44502728
   0.35202882  0.42601572  0.44502924
   0.07398428  0.14797119  0.44502924
   0.07391403  0.92608593  0.05578996
   0.07391156  0.64782577  0.05578797
   0.35217416  0.92608841  0.05578797
   0.42608594  0.57391406  0.55578994
   0.42608842  0.85217417  0.55578796
   0.14782583  0.57391158  0.55578796
   0.42601329  0.57398671  0.94502728
   0.14797119  0.57398427  0.94502924
   0.42601572  0.85202881  0.94502924
   0.07398668  0.92601328  0.44502728
   0.35202879  0.92601572  0.44502924
   0.07398425  0.64797113  0.44502924
   0.57391404  0.42608593  0.05578996
   0.57391158  0.14782582  0.05578797
   0.85217420  0.42608842  0.05578797
   0.92608601  0.07391406  0.55578994
   0.92608846  0.35217417  0.55578796
   0.64782580  0.07391158  0.55578796
   0.92601336  0.07398671  0.94502728
   0.64797116  0.07398428  0.94502924
   0.92601576  0.35202881  0.94502924
   0.57398668  0.42601329  0.44502728
   0.85202884  0.42601572  0.44502924
   0.57398428  0.14797119  0.44502924
   0.57391403  0.92608593  0.05578996
   0.57391156  0.64782577  0.05578797
   0.85217416  0.92608841  0.05578797
   0.92608596  0.57391406  0.55578994
   0.92608846  0.85217417  0.55578796
   0.64782580  0.57391158  0.55578796
   0.92601331  0.57398671  0.94502728
   0.64797116  0.57398427  0.94502924
   0.92601576  0.85202881  0.94502924
   0.57398668  0.92601328  0.44502728
   0.85202879  0.92601572  0.44502924
   0.57398425  0.64797113  0.44502924
   0.25337904  0.24662096  0.15116612
   0.25338354  0.00676291  0.15117570
   0.49323711  0.24661646  0.15117570
   0.24662096  0.25337904  0.65116609
   0.24661646  0.49323709  0.65117566
   0.00676291  0.25338354  0.65117566
   0.24687637  0.25312363  0.84911928
   0.00625190  0.25312808  0.84910976
   0.24687192  0.49374809  0.84910976
   0.25312363  0.24687637  0.34911924
   0.49374812  0.24687192  0.34910972
   0.25312807  0.00625190  0.34910972
   0.25337902  0.74662095  0.15116612
   0.25338354  0.50676291  0.15117570
   0.49323707  0.74661646  0.15117570
   0.24662098  0.75337904  0.65116609
   0.24661643  0.99323703  0.65117566
   0.00676293  0.75338354  0.65117566
   0.24687639  0.75312363  0.84911928
   0.00625192  0.75312807  0.84910976
   0.24687190  0.99374804  0.84910976
   0.25312361  0.74687636  0.34911924
   0.49374807  0.74687192  0.34910972
   0.25312808  0.50625190  0.34910972
   0.75337902  0.24662096  0.15116612
   0.75338349  0.00676291  0.15117570
   0.99323711  0.24661646  0.15117570
   0.74662102  0.25337904  0.65116609
   0.74661650  0.49323709  0.65117566
   0.50676293  0.25338354  0.65117566
   0.74687643  0.25312363  0.84911928
   0.50625192  0.25312808  0.84910976
   0.74687196  0.49374809  0.84910976
   0.75312361  0.24687637  0.34911924
   0.99374812  0.24687192  0.34910972
   0.75312803  0.00625190  0.34910972
   0.75337897  0.74662095  0.15116612
   0.75338350  0.50676291  0.15117570
   0.99323707  0.74661646  0.15117570
   0.74662102  0.75337904  0.65116609
   0.74661647  0.99323703  0.65117566
   0.50676293  0.75338354  0.65117566
   0.74687643  0.75312363  0.84911928
   0.50625192  0.75312807  0.84910976
   0.74687194  0.99374804  0.84910976
   0.75312356  0.74687636  0.34911924
   0.99374807  0.74687192  0.34910972
   0.75312803  0.50625190  0.34910972
   0.33333017  0.16666982  0.81326451
   0.16666982  0.33333019  0.31326451
   0.16666980  0.33333022  0.18700160
   0.33333020  0.16666979  0.68700158
   0.33333018  0.66666983  0.81326451
   0.16666984  0.83333016  0.31326451
   0.16666981  0.83333019  0.18700160
   0.33333020  0.66666980  0.68700158
   0.83333009  0.16666982  0.81326451
   0.66666983  0.33333019  0.31326451
   0.66666981  0.33333022  0.18700160
   0.83333011  0.16666979  0.68700158
   0.83333013  0.66666983  0.81326451
   0.66666986  0.83333016  0.31326451
   0.66666984  0.83333019  0.18700160
   0.83333016  0.66666980  0.68700158
Ca2Al24O38                              
           1
    11.430599    0.000000    0.000000
    -5.715299    9.899189    0.000000
     0.000000    0.000000   22.352102
   Al   Ca   Mg   O    Ti
  64   8  16 152  16
Direct configuration=     2
   1.00000000  0.00000000  0.00012785
   0.00000000  1.00000000  0.50012785
   0.99999999  0.50000000  0.00012785
   0.00000000  0.49999999  0.50012785
   0.50000000  0.00000000  0.00012785
   0.50000000  1.00000000  0.50012785
   0.49999999  0.50000000  0.00012785
   0.50000000  0.49999999  0.50012785
   0.00000558  0.99999442  0.24667534
   0.99999442  0.00000558  0.74667532
   0.00000557  0.49999442  0.24667534
   0.99999442  0.50000557  0.74667532
   0.50000558  0.99999442  0.24667534
   0.49999442  0.00000558  0.74667532
   0.50000557  0.49999442  0.24667534
   0.49999442  0.50000557  0.74667532
   0.41723726  0.08276271  0.10598201
   0.41723798  0.33447233  0.10598030
   0.16552769  0.08276199  0.10598030
   0.08276271  0.41723729  0.60598204
   0.08276199  0.16552769  0.60598032
   0.33447234  0.41723800  0.60598032
   0.08238912  0.41761089  0.89408410
   0.33521958  0.41761162  0.89408578
   0.08238838  0.16478045  0.89408578
   0.41761086  0.08238911  0.39408405
   0.16478045  0.08238838  0.39408573
   0.41761159  0.33521957  0.39408573
   0.41723726  0.58276270  0.10598201
   0.41723800  0.83447230  0.10598030
   0.16552767  0.58276199  0.10598030
   0.08276271  0.91723724  0.60598204
   0.08276199  0.66552769  0.60598032
   0.33447232  0.91723795  0.60598032
   0.08238911  0.91761083  0.89408410
   0.33521956  0.91761156  0.89408578
   0.08238838  0.66478045  0.89408578
   0.41761086  0.58238911  0.39408405
   0.16478043  0.58238838  0.39408573
   0.41761162  0.83521954  0.39408573
   0.91723726  0.08276271  0.10598201
   0.91723798  0.33447233  0.10598030
   0.66552768  0.08276199  0.10598030
   0.58276274  0.41723729  0.60598204
   0.58276199  0.16552769  0.60598032
   0.83447228  0.41723800  0.60598032
   0.58238914  0.41761089  0.89408410
   0.83521952  0.41761162  0.89408578
   0.58238838  0.16478045  0.89408578
   0.91761086  0.08238911  0.39408405
   0.66478044  0.08238838  0.39408573
   0.91761159  0.33521957  0.39408573
   0.91723726  0.58276270  0.10598201
   0.91723800  0.83447230  0.10598030
   0.66552767  0.58276199  0.10598030
   0.58276271  0.91723724  0.60598204
   0.58276201  0.66552769  0.60598032
   0.83447225  0.91723795  0.60598032
   0.58238911  0.91761083  0.89408410
   0.83521949  0.91761156  0.89408578
   0.58238840  0.66478045  0.89408578
   0.91761086  0.58238911  0.39408405
   0.66478043  0.58238838  0.39408573
   0.91761162  0.83521954  0.39408573
   0.33333195  0.16666803  0.24964172
   0.16666804  0.33333198  0.74964176
   0.33333196  0.66666804  0.24964172
   0.16666806  0.83333195  0.74964176
   0.83333187  0.16666803  0.24964172
   0.66666805  0.33333198  0.74964176
   0.83333192  0.66666804  0.24964172
   0.66666808  0.83333195  0.74964176
   0.16666752  0.33333249  0.02588216
   0.33333247  0.16666752  0.52588216
   0.33333249  0.16666750  0.97409293
   0.16666750  0.33333251  0.47409293
   0.16666754  0.83333246  0.02588216
   0.33333247  0.66666753  0.52588216
   0.33333250  0.66666750  0.97409293
   0.16666752  0.83333249  0.47409293
   0.66666753  0.33333249  0.02588216
   0.83333238  0.16666752  0.52588216
   0.83333241  0.16666750  0.97409293
   0.66666751  0.33333251  0.47409293
   0.66666756  0.83333246  0.02588216
   0.83333243  0.66666753  0.52588216
   0.83333245  0.66666750  0.97409293
   0.66666754  0.83333249  0.47409293
   0.00000196  0.99999804  0.15401107
   0.99999804  0.00000196  0.65401105
   0.99999804  0.00000196  0.84762792
   0.00000196  0.99999804  0.34762785
   0.00000196  0.49999804  0.15401107
   0.99999804  0.50000196  0.65401105
   0.99999804  0.50000195  0.84762792
   0.00000195  0.49999804  0.34762785
   0.50000196  0.99999804  0.15401107
   0.49999804  0.00000196  0.65401105
   0.49999804  0.00000196  0.84762792
   0.50000196  0.99999804  0.34762785
   0.50000196  0.49999804  0.15401107
   0.49999804  0.50000196  0.65401105
   0.49999804  0.50000195  0.84762792
   0.50000195  0.49999804  0.34762785
   0.16666341  0.33333661  0.93761470
   0.33333659  0.16666340  0.43761470
   0.33333660  0.16666339  0.06238717
   0.16666339  0.33333662  0.56238715
   0.16666343  0.83333658  0.93761470
   0.33333659  0.66666341  0.43761470
   0.33333661  0.66666340  0.06238717
   0.16666341  0.83333659  0.56238715
   0.66666342  0.33333661  0.93761470
   0.83333650  0.16666340  0.43761470
   0.83333652  0.16666339  0.06238717
   0.66666340  0.33333662  0.56238715
   0.66666345  0.83333658  0.93761470
   0.83333655  0.66666341  0.43761470
   0.83333656  0.66666340  0.06238717
   0.66666343  0.83333659  0.56238715
   0.08976971  0.41023027  0.24977566
   0.08978442  0.17952163  0.24977568
   0.32047839  0.41021556  0.24977568
   0.41023026  0.08976970  0.74977559
   0.41021555  0.32047838  0.74977561
   0.17952161  0.08978441  0.74977561
   0.08976969  0.91023029  0.24977566
   0.08978439  0.67952159  0.24977568
   0.32047838  0.91021558  0.24977568
   0.41023026  0.58976970  0.74977559
   0.41021556  0.82047841  0.74977561
   0.17952161  0.58978441  0.74977561
   0.58976972  0.41023027  0.24977566
   0.58978441  0.17952163  0.24977568
   0.82047842  0.41021556  0.24977568
   0.91023031  0.08976970  0.74977559
   0.91021559  0.32047838  0.74977561
   0.67952161  0.08978441  0.74977561
   0.58976969  0.91023029  0.24977566
   0.58978439  0.67952159  0.24977568
   0.82047838  0.91021558  0.24977568
   0.91023031  0.58976970  0.74977559
   0.91021560  0.82047841  0.74977561
   0.67952161  0.58978441  0.74977561
   0.07391406  0.42608593  0.05578996
   0.07391158  0.14782582  0.05578797
   0.35217418  0.42608842  0.05578797
   0.42608592  0.07391406  0.55578994
   0.42608842  0.35217417  0.55578796
   0.14782583  0.07391158  0.55578796
   0.42601327  0.07398671  0.94502728
   0.14797119  0.07398428  0.94502924
   0.42601572  0.35202881  0.94502924
   0.07398671  0.42601329  0.44502728
   0.35202882  0.42601572  0.44502924
   0.07398428  0.14797119  0.44502924
   0.07391403  0.92608593  0.05578996
   0.07391156  0.64782577  0.05578797
   0.35217416  0.92608841  0.05578797
   0.42608594  0.57391406  0.55578994
   0.42608842  0.85217417  0.55578796
   0.14782583  0.57391158  0.55578796
   0.42601329  0.57398671  0.94502728
   0.14797119  0.57398427  0.94502924
   0.42601572  0.85202881  0.94502924
   0.07398668  0.92601328  0.44502728
   0.35202879  0.92601572  0.44502924
   0.07398425  0.64797113  0.44502924
   0.57391404  0.42608593  0.05578996
   0.57391158  0.14782582  0.05578797
   0.85217420  0.42608842  0.05578797
   0.92608601  0.07391406  0.55578994
   0.92608846  0.35217417  0.55578796
   0.64782580  0.07391158  0.55578796
   0.92601336  0.07398671  0.94502728
   0.64797116  0.07398428  0.94502924
   0.92601576  0.35202881  0.94502924
   0.57398668  0.42601329  0.44502728
   0.85202884  0.42601572  0.44502924
   0.57398428  0.14797119  0.44502924
   0.57391403  0.92608593  0.05578996
   0.57391156  0.64782577  0.05578797
   0.85217416  0.92608841  0.05578797
   0.92608596  0.57391406  0.55578994
   0.92608846  0.85217417  0.55578796
   0.64782580  0.57391158  0.55578796
   0.92601331  0.57398671  0.94502728
   0.64797116  0.57398427  0.94502924
   0.92601576  0.85202881  0.94502924
   0.57398668  0.92601328  0.44502728
   0.85202879  0.92601572  0.44502924
   0.57398425  0.64797113  0.44502924
   0.25337904  0.24662096  0.15116612
   0.25338354  0.00676291  0.15117570
   0.49323711  0.24661646  0.15117570
   0.24662096  0.25337904  0.65116609
   0.24661646  0.49323709  0.65117566
   0.00676291  0.25338354  0.65117566
   0.24687637  0.25312363  0.84911928
   0.00625190  0.25312808  0.84910976
   0.24687192  0.49374809  0.84910976
   0.25312363  0.24687637  0.34911924
   0.49374812  0.24687192  0.34910972
   0.25312807  0.00625190  0.34910972
   0.25337902  0.74662095  0.15116612
   0.25338354  0.50676291  0.15117570
   0.49323707  0.74661646  0.15117570
   0.24662098  0.75337904  0.65116609
   0.24661643  0.99323703  0.65117566
   0.00676293  0.75338354  0.65117566
   0.24687639  0.75312363  0.84911928
   0.00625192  0.75312807  0.84910976
   0.24687190  0.99374804  0.84910976
   0.25312361  0.74687636  0.34911924
   0.49374807  0.74687192  0.34910972
   0.25312808  0.50625190  0.34910972
   0.75337902  0.24662096  0.15116612
   0.75338349  0.00676291  0.15117570
   0.99323711  0.24661646  0.15117570
   0.74662102  0.25337904  0.65116609
   0.74661650  0.49323709  0.65117566
   0.50676293  0.25338354  0.65117566
   0.74687643  0.25312363  0.84911928
   0.50625192  0.25312808  0.84910976
   0.74687196  0.49374809  0.84910976
   0.75312361  0.24687637  0.34911924
   0.99374812  0.24687192  0.34910972
   0.75312803  0.00625190  0.34910972
   0.75337897  0.74662095  0.15116612
   0.75338350  0.50676291  0.15117570
   0.99323707  0.74661646  0.15117570
   0.74662102  0.75337904  0.65116609
   0.74661647  0.99323703  0.65117566
   0.50676293  0.75338354  0.65117566
   0.74687643  0.75312363  0.84911928
   0.50625192  0.75312807  0.84910976
   0.74687194  0.99374804  0.84910976
   0.75312356  0.74687636  0.34911924
   0.99374807  0.74687192  0.34910972
   0.75312803  0.50625190  0.34910972
   0.33333017  0.16666982  0.81326451
   0.16666982  0.33333019  0.31326451
   0.16666980  0.33333022  0.18700160
   0.33333020  0.16666979  0.68700158
   0.33333018  0.66666983  0.81326451
   0.16666984  0.83333016  0.31326451
   0.16666981  0.83333019  0.18700160
   0.33333020  0.66666980  0.68700158
   0.83333009  0.16666982  0.81326451
   0.66666983  0.33333019  0.31326451
   0.66666981  0.33333022  0.18700160
   0.83333011  0.16666979  0.68700158
   0.83333013  0.66666983  0.81326451
   0.66666986  0.83333016  0.31326451
   0.66666984  0.83333019  0.18700160
   0.83333016  0.66666980  0.68700158
Ca2Al24O38                              
           1
    11.446437    0.000000    0.000000
    -5.723219    9.912905    0.000000
     0.000000    0.000000   22.383073
   Al   Ca   Mg   O    Ti
  64   8  16 152  16
Direct configuration=     3
   1.00000000  0.00000000  0.00012785
   0.00000000  1.00000000  0.50012785
   0.99999999  0.50000000  0.00012785
   0.00000000  0.49999999  0.50012785
   0.50000000  0.00000000  0.00012785
   0.50000000  1.00000000  0.50012785
   0.49999999  0.50000000  0.00012785
   0.50000000  0.49999999  0.50012785
   0.00000558  0.99999442  0.24667534
   0.99999442  0.00000558  0.74667532
   0.00000557  0.49999442  0.24667534
   0.99999442  0.50000557  0.74667532
   0.50000558  0.99999442  0.24667534
   0.49999442  0.00000558  0.74667532
   0.50000557  0.49999442  0.24667534
   0.49999442  0.50000557  0.74667532
   0.41723726  0.08276271  0.10598201
   0.41723798  0.33447233  0.10598030
   0.16552769  0.08276199  0.10598030
   0.08276271  0.41723729  0.60598204
   0.08276199  0.16552769  0.60598032
   0.33447234  0.41723800  0.60598032
   0.08238912  0.41761089  0.89408410
   0.33521958  0.41761162  0.89408578
   0.08238838  0.16478045  0.89408578
   0.41761086  0.08238911  0.39408405
   0.16478045  0.08238838  0.39408573
   0.41761159  0.33521957  0.39408573
   0.41723726  0.58276270  0.10598201
   0.41723800  0.83447230  0.10598030
   0.16552767  0.58276199  0.10598030
   0.08276271  0.91723724  0.60598204
   0.08276199  0.66552769  0.60598032
   0.33447232  0.91723795  0.60598032
   0.08238911  0.91761083  0.89408410
   0.33521956  0.91761156  0.89408578
   0.08238838  0.66478045  0.89408578
   0.41761086  0.58238911  0.39408405
   0.16478043  0.58238838  0.39408573
   0.41761162  0.83521954  0.39408573
   0.91723726  0.08276271  0.10598201
   0.91723798  0.33447233  0.10598030
   0.66552768  0.08276199  0.10598030
   0.58276274  0.41723729  0.60598204
   0.58276199  0.16552769  0.60598032
   0.83447228  0.41723800  0.60598032
   0.58238914  0.41761089  0.89408410
   0.83521952  0.41761162  0.89408578
   0.58238838  0.16478045  0.89408578
   0.91761086  0.08238911  0.39408405
   0.66478044  0.08238838  0.39408573
   0.91761159  0.33521957  0.39408573
   0.91723726  0.58276270  0.10598201
   0.91723800  0.83447230  0.10598030
   0.66552767  0.58276199  0.10598030
   0.58276271  0.91723724  0.60598204
   0.58276201  0.66552769  0.60598032
   0.83447225  0.91723795  0.60598032
   0.58238911  0.91761083  0.89408410
   0.83521949  0.91761156  0.89408578
   0.58238840  0.66478045  0.89408578
   0.91761086  0.58238911  0.39408405
   0.66478043  0.58238838  0.39408573
   0.91761162  0.83521954  0.39408573
   0.33333195  0.16666803  0.24964172
   0.16666804  0.33333198  0.74964176
   0.33333196  0.66666804  0.24964172
   0.16666806  0.83333195  0.74964176
   0.83333187  0.16666803  0.24964172
   0.66666805  0.33333198  0.74964176
   0.83333192  0.66666804  0.24964172
   0.66666808  0.83333195  0.74964176
   0.16666752  0.33333249  0.02588216
   0.33333247  0.16666752  0.52588216
   0.33333249  0.16666750  0.97409293
   0.16666750  0.33333251  0.47409293
   0.16666754  0.83333246  0.02588216
   0.33333247  0.66666753  0.52588216
   0.33333250  0.66666750  0.97409293
   0.16666752  0.83333249  0.47409293
   0.66666753  0.33333249  0.02588216
   0.83333238  0.16666752  0.52588216
   0.83333241  0.16666750  0.97409293
   0.66666751  0.33333251  0.47409293
   0.66666756  0.83333246  0.02588216
   0.83333243  0.66666753  0.52588216
   0.83333245  0.66666750  0.97409293
   0.66666754  0.83333249  0.47409293
   0.00000196  0.99999804  0.15401107
   0.99999804  0.00000196  0.65401105
   0.99999804  0.00000196  0.84762792
   0.00000196  0.99999804  0.34762785
   0.00000196  0.49999804  0.15401107
   0.99999804  0.50000196  0.65401105
   0.99999804  0.50000195  0.84762792
   0.00000195  0.49999804  0.34762785
   0.50000196  0.99999804  0.15401107
   0.49999804  0.00000196  0.65401105
   0.49999804  0.00000196  0.84762792
   0.50000196  0.99999804  0.34762785
   0.50000196  0.49999804  0.15401107
   0.49999804  0.50000196  0.65401105
   0.49999804  0.50000195  0.84762792
   0.50000195  0.49999804  0.34762785
   0.16666341  0.33333661  0.93761470
   0.33333659  0.16666340  0.43761470
   0.33333660  0.16666339  0.06238717
   0.16666339  0.33333662  0.56238715
   0.16666343  0.83333658  0.93761470
   0.33333659  0.66666341  0.43761470
   0.33333661  0.66666340  0.06238717
   0.16666341  0.83333659  0.56238715
   0.66666342  0.33333661  0.93761470
   0.83333650  0.16666340  0.43761470
   0.83333652  0.16666339  0.06238717
   0.66666340  0.33333662  0.56238715
   0.66666345  0.83333658  0.93761470
   0.83333655  0.66666341  0.43761470
   0.83333656  0.66666340  0.06238717
   0.66666343  0.83333659  0.56238715
   0.08976971  0.41023027  0.24977566
   0.08978442  0.17952163  0.24977568
   0.32047839  0.41021556  0.24977568
   0.41023026  0.08976970  0.74977559
   0.41021555  0.32047838  0.74977561
   0.17952161  0.08978441  0.74977561
   0.08976969  0.91023029  0.24977566
   0.08978439  0.67952159  0.24977568
   0.32047838  0.91021558  0.24977568
   0.41023026  0.58976970  0.74977559
   0.41021556  0.82047841  0.74977561
   0.17952161  0.58978441  0.74977561
   0.58976972  0.41023027  0.24977566
   0.58978441  0.17952163  0.24977568
   0.82047842  0.41021556  0.24977568
   0.91023031  0.08976970  0.74977559
   0.91021559  0.32047838  0.74977561
   0.67952161  0.08978441  0.74977561
   0.58976969  0.91023029  0.24977566
   0.58978439  0.67952159  0.24977568
   0.82047838  0.91021558  0.24977568
   0.91023031  0.58976970  0.74977559
   0.91021560  0.82047841  0.74977561
   0.67952161  0.58978441  0.74977561
   0.07391406  0.42608593  0.05578996
   0.07391158  0.14782582  0.05578797
   0.35217418  0.42608842  0.05578797
   0.42608592  0.07391406  0.55578994
   0.42608842  0.35217417  0.55578796
   0.14782583  0.07391158  0.55578796
   0.42601327  0.07398671  0.94502728
   0.14797119  0.07398428  0.94502924
   0.42601572  0.35202881  0.94502924
   0.07398671  0.42601329  0.44502728
   0.35202882  0.42601572  0.44502924
   0.07398428  0.14797119  0.44502924
   0.07391403  0.92608593  0.05578996
   0.07391156  0.64782577  0.05578797
   0.35217416  0.92608841  0.05578797
   0.42608594  0.57391406  0.55578994
   0.42608842  0.85217417  0.55578796
   0.14782583  0.57391158  0.55578796
   0.42601329  0.57398671  0.94502728
   0.14797119  0.57398427  0.94502924
   0.42601572  0.85202881  0.94502924
   0.07398668  0.92601328  0.44502728
   0.35202879  0.92601572  0.44502924
   0.07398425  0.64797113  0.44502924
   0.57391404  0.42608593  0.05578996
   0.57391158  0.14782582  0.05578797
   0.85217420  0.42608842  0.05578797
   0.92608601  0.07391406  0.55578994
   0.92608846  0.35217417  0.55578796
   0.64782580  0.07391158  0.55578796
   0.92601336  0.07398671  0.94502728
   0.64797116  0.07398428  0.94502924
   0.92601576  0.35202881  0.94502924
   0.57398668  0.42601329  0.44502728
   0.85202884  0.42601572  0.44502924
   0.57398428  0.14797119  0.44502924
   0.57391403  0.92608593  0.05578996
   0.57391156  0.64782577  0.05578797
   0.85217416  0.92608841  0.05578797
   0.92608596  0.57391406  0.55578994
   0.92608846  0.85217417  0.55578796
   0.64782580  0.57391158  0.55578796
   0.92601331  0.57398671  0.94502728
   0.64797116  0.57398427  0.94502924
   0.92601576  0.85202881  0.94502924
   0.57398668  0.92601328  0.44502728
   0.85202879  0.92601572  0.44502924
   0.57398425  0.64797113  0.44502924
   0.25337904  0.24662096  0.15116612
   0.25338354  0.00676291  0.15117570
   0.49323711  0.24661646  0.15117570
   0.24662096  0.25337904  0.65116609
   0.24661646  0.49323709  0.65117566
   0.00676291  0.25338354  0.65117566
   0.24687637  0.25312363  0.84911928
   0.00625190  0.25312808  0.84910976
   0.24687192  0.49374809  0.84910976
   0.25312363  0.24687637  0.34911924
   0.49374812  0.24687192  0.34910972
   0.25312807  0.00625190  0.34910972
   0.25337902  0.74662095  0.15116612
   0.25338354  0.50676291  0.15117570
   0.49323707  0.74661646  0.15117570
   0.24662098  0.75337904  0.65116609
   0.24661643  0.99323703  0.65117566
   0.00676293  0.75338354  0.65117566
   0.24687639  0.75312363  0.84911928
   0.00625192  0.75312807  0.84910976
   0.24687190  0.99374804  0.84910976
   0.25312361  0.74687636  0.34911924
   0.49374807  0.74687192  0.34910972
   0.25312808  0.50625190  0.34910972
   0.75337902  0.24662096  0.15116612
   0.75338349  0.00676291  0.15117570
   0.99323711  0.24661646  0.15117570
   0.74662102  0.25337904  0.65116609
   0.74661650  0.49323709  0.65117566
   0.50676293  0.25338354  0.65117566
   0.74687643  0.25312363  0.84911928
   0.50625192  0.25312808  0.84910976
   0.74687196  0.49374809  0.84910976
   0.75312361  0.24687637  0.34911924
   0.99374812  0.24687192  0.34910972
   0.75312803  0.00625190  0.34910972
   0.75337897  0.74662095  0.15116612
   0.75338350  0.50676291  0.15117570
   0.99323707  0.74661646  0.15117570
   0.74662102  0.75337904  0.65116609
   0.74661647  0.99323703  0.65117566
   0.50676293  0.75338354  0.65117566
   0.74687643  0.75312363  0.84911928
   0.50625192  0.75312807  0.84910976
   0.74687194  0.99374804  0.84910976
   0.75312356  0.74687636  0.34911924
   0.99374807  0.74687192  0.34910972
   0.75312803  0.50625190  0.34910972
   0.33333017  0.16666982  0.81326451
   0.16666982  0.33333019  0.31326451
   0.16666980  0.33333022  0.18700160
   0.33333020  0.16666979  0.68700158
   0.33333018  0.66666983  0.81326451
   0.16666984  0.83333016  0.31326451
   0.16666981  0.83333019  0.18700160
   0.33333020  0.66666980  0.68700158
   0.83333009  0.16666982  0.81326451
   0.66666983  0.33333019  0.31326451
   0.66666981  0.33333022  0.18700160
   0.83333011  0.16666979  0.68700158
   0.83333013  0.66666983  0.81326451
   0.66666986  0.83333016  0.31326451
   0.66666984  0.83333019  0.18700160
   0.83333016  0.66666980  0.68700158
Ca2Al24O38                              
           1