 vasp.5.4.4.18Apr17-6-g9f103f2a35 (build Sep 23 2020 14:43:34) complex          
  
 executed on             LinuxIFC date 2022.03.03  18:00:59
 running on   90 total cores
 distrk:  each k-point on   90 cores,    1 groups
 distr:  one band on NCORES_PER_BAND=   9 cores,   10 groups


--------------------------------------------------------------------------------------------------------


 INCAR:
 POTCAR:   PAW_PBE Al 04Jan2001                   
 POTCAR:   PAW_PBE Ca_pv 06Sep2000                
 POTCAR:   PAW_PBE Mg 05Jan2001                   
 POTCAR:   PAW_PBE O 08Apr2002                    
 POTCAR:   PAW_PBE Ti 08Apr2002                   
 POTCAR:   PAW_PBE Al 04Jan2001                   
   VRHFIN =Al: s2p1                                                             
   LEXCH  = PE                                                                  
   EATOM  =    53.5387 eV,    3.9350 Ry                                         
                                                                                
   TITEL  = PAW_PBE Al 04Jan2001                                                
   LULTRA =        F    use ultrasoft PP ?                                      
   IUNSCR =        1    unscreen: 0-lin 1-nonlin 2-no                           
   RPACOR =    1.500    partial core radius                                     
   POMASS =   26.982; ZVAL   =    3.000    mass and valenz                      
   RCORE  =    1.900    outmost cutoff radius                                   
   RWIGS  =    2.650; RWIGS  =    1.402    wigner-seitz radius (au A)           
   ENMAX  =  240.300; ENMIN  =  180.225 eV                                      
   ICORE  =        2    local potential                                         
   LCOR   =        T    correct aug charges                                     
   LPAW   =        T    paw PP                                                  
   EAUG   =  291.052                                                            
   DEXC   =    -.041                                                            
   RMAX   =    2.974    core radius for proj-oper                               
   RAUG   =    1.300    factor for augmentation sphere                          
   RDEP   =    1.966    radius for radial grids                                 
   QCUT   =   -4.203; QGAM   =    8.405    optimization parameters              
                                                                                
   Description                                                                  
     l     E      TYP  RCUT    TYP  RCUT                                        
     0   .000     23  1.900                                                     
     0   .000     23  1.900                                                     
     1   .000     23  1.900                                                     
     1  1.000     23  1.900                                                     
     2   .000      7  1.900                                                     
  local pseudopotential read in
  partial core-charges read in
  atomic valenz-charges read in
  non local Contribution for L=           0  read in
    real space projection operators read in
  non local Contribution for L=           0  read in
    real space projection operators read in
  non local Contribution for L=           1  read in
    real space projection operators read in
  non local Contribution for L=           1  read in
    real space projection operators read in
    PAW grid and wavefunctions read in
 
   number of l-projection  operators is LMAX  =           4
   number of lm-projection operators is LMMAX =           8
 
 POTCAR:   PAW_PBE Ca_pv 06Sep2000                
   VRHFIN =Ca: p6s2d0.01                                                        
   LEXCH  = PE                                                                  
   EATOM  =   612.5326 eV,   45.0199 Ry                                         
                                                                                
   TITEL  = PAW_PBE Ca_pv 06Sep2000                                             
   LULTRA =        F    use ultrasoft PP ?                                      
   IUNSCR =        1    unscreen: 0-lin 1-nonlin 2-no                           
   RPACOR =    2.300    partial core radius                                     
   POMASS =   40.078; ZVAL   =    8.000    mass and valenz                      
   RCORE  =    3.000    outmost cutoff radius                                   
   RWIGS  =    3.300; RWIGS  =    1.746    wigner-seitz radius (au A)           
   ENMAX  =  119.554; ENMIN  =   89.665 eV                                      
   RCLOC  =    1.709    cutoff for local pot                                    
   LCOR   =        T    correct aug charges                                     
   LPAW   =        T    paw PP                                                  
   EAUG   =  325.799                                                            
   DEXC   =    -.003                                                            
   RMAX   =    4.217    core radius for proj-oper                               
   RAUG   =    1.300    factor for augmentation sphere                          
   RDEP   =    3.090    radius for radial grids                                 
   QCUT   =   -2.964; QGAM   =    5.929    optimization parameters              
                                                                                
   Description                                                                  
     l     E      TYP  RCUT    TYP  RCUT                                        
     1   .000     23  3.000                                                     
     1   .100     23  3.000                                                     
     0   .000     23  3.000                                                     
     0   .000     23  3.000                                                     
     2   .000     23  3.000                                                     
     2   .000     23  3.000                                                     
  local pseudopotential read in
  partial core-charges read in
  atomic valenz-charges read in
  non local Contribution for L=           1  read in
    real space projection operators read in
  non local Contribution for L=           1  read in
    real space projection operators read in
  non local Contribution for L=           0  read in
    real space projection operators read in
  non local Contribution for L=           0  read in
    real space projection operators read in
  non local Contribution for L=           2  read in
    real space projection operators read in
  non local Contribution for L=           2  read in
    real space projection operators read in
    PAW grid and wavefunctions read in
 
   number of l-projection  operators is LMAX  =           6
   number of lm-projection operators is LMMAX =          18
 
 POTCAR:   PAW_PBE Mg 05Jan2001                   
   VRHFIN =Mg: s2p0                                                             
   LEXCH  = PE                                                                  
   EATOM  =    23.0029 eV,    1.6907 Ry                                         
                                                                                
   TITEL  = PAW_PBE Mg 05Jan2001                                                
   LULTRA =        F    use ultrasoft PP ?                                      
   IUNSCR =        1    unscreen: 0-lin 1-nonlin 2-no                           
   RPACOR =    2.000    partial core radius                                     
   POMASS =   24.305; ZVAL   =    2.000    mass and valenz                      
   RCORE  =    2.000    outmost cutoff radius                                   
   RWIGS  =    2.880; RWIGS  =    1.524    wigner-seitz radius (au A)           
   ENMAX  =  210.012; ENMIN  =  157.509 eV                                      
   ICORE  =        2    local potential                                         
   LCOR   =        T    correct aug charges                                     
   LPAW   =        T    paw PP                                                  
   EAUG   =  274.554                                                            
   DEXC   =    -.136                                                            
   RMAX   =    3.182    core radius for proj-oper                               
   RAUG   =    1.300    factor for augmentation sphere                          
   RDEP   =    2.025    radius for radial grids                                 
   QCUT   =   -3.929; QGAM   =    7.858    optimization parameters              
                                                                                
   Description                                                                  
     l     E      TYP  RCUT    TYP  RCUT                                        
     0   .000     23  2.000                                                     
     0  2.000     23  2.000                                                     
     1   .000     23  2.000                                                     
     1  2.000     23  2.000                                                     
     2   .000     23  2.000                                                     
  local pseudopotential read in
  partial core-charges read in
  atomic valenz-charges read in
  non local Contribution for L=           0  read in
    real space projection operators read in
  non local Contribution for L=           0  read in
    real space projection operators read in
  non local Contribution for L=           1  read in
    real space projection operators read in
  non local Contribution for L=           1  read in
    real space projection operators read in
    PAW grid and wavefunctions read in
 
   number of l-projection  operators is LMAX  =           4
   number of lm-projection operators is LMMAX =           8
 
 POTCAR:   PAW_PBE O 08Apr2002                    
   VRHFIN =O: s2p4                                                              
   LEXCH  = PE                                                                  
   EATOM  =   432.3788 eV,   31.7789 Ry                                         
                                                                                
   TITEL  = PAW_PBE O 08Apr2002                                                 
   LULTRA =        F    use ultrasoft PP ?                                      
   IUNSCR =        0    unscreen: 0-lin 1-nonlin 2-no                           
   RPACOR =     .000    partial core radius                                     
   POMASS =   16.000; ZVAL   =    6.000    mass and valenz                      
   RCORE  =    1.520    outmost cutoff radius                                   
   RWIGS  =    1.550; RWIGS  =     .820    wigner-seitz radius (au A)           
   ENMAX  =  400.000; ENMIN  =  300.000 eV                                      
   ICORE  =        2    local potential                                         
   LCOR   =        T    correct aug charges                                     
   LPAW   =        T    paw PP                                                  
   EAUG   =  605.392                                                            
   DEXC   =     .000                                                            
   RMAX   =    2.264    core radius for proj-oper                               
   RAUG   =    1.300    factor for augmentation sphere                          
   RDEP   =    1.550    radius for radial grids                                 
   QCUT   =   -5.520; QGAM   =   11.041    optimization parameters              
                                                                                
   Description                                                                  
     l     E      TYP  RCUT    TYP  RCUT                                        
     0   .000     23  1.200                                                     
     0  -.700     23  1.200                                                     
     1   .000     23  1.520                                                     
     1   .600     23  1.520                                                     
     2   .000      7  1.500                                                     
  local pseudopotential read in
  atomic valenz-charges read in
  non local Contribution for L=           0  read in
    real space projection operators read in
  non local Contribution for L=           0  read in
    real space projection operators read in
  non local Contribution for L=           1  read in
    real space projection operators read in
  non local Contribution for L=           1  read in
    real space projection operators read in
    PAW grid and wavefunctions read in
 
   number of l-projection  operators is LMAX  =           4
   number of lm-projection operators is LMMAX =           8
 
 POTCAR:   PAW_PBE Ti 08Apr2002                   
   VRHFIN =Ti: d3 s1                                                            
   LEXCH  = PE                                                                  
   EATOM  =    94.7929 eV,    6.9671 Ry                                         
                                                                                
   TITEL  = PAW_PBE Ti 08Apr2002                                                
   LULTRA =        F    use ultrasoft PP ?                                      
   IUNSCR =        1    unscreen: 0-lin 1-nonlin 2-no                           
   RPACOR =    2.200    partial core radius                                     
   POMASS =   47.880; ZVAL   =    4.000    mass and valenz                      
   RCORE  =    2.800    outmost cutoff radius                                   
   RWIGS  =    2.500; RWIGS  =    1.323    wigner-seitz radius (au A)           
   ENMAX  =  178.330; ENMIN  =  133.747 eV                                      
   RCLOC  =    2.215    cutoff for local pot                                    
   LCOR   =        T    correct aug charges                                     
   LPAW   =        T    paw PP                                                  
   EAUG   =  328.883                                                            
   DEXC   =    -.043                                                            
   RMAX   =    3.453    core radius for proj-oper                               
   RAUG   =    1.300    factor for augmentation sphere                          
   RDEP   =    2.885    radius for radial grids                                 
   QCUT   =   -3.620; QGAM   =    7.241    optimization parameters              
                                                                                
   Description                                                                  
     l     E      TYP  RCUT    TYP  RCUT                                        
     2   .000     23  2.800                                                     
     2   .000     23  2.800                                                     
     0   .000     23  2.800                                                     
     0  1.500     23  2.800                                                     
     1  -.400     23  2.800                                                     
     3   .000      7   .000                                                     
  local pseudopotential read in
  partial core-charges read in
  atomic valenz-charges read in
  non local Contribution for L=           2  read in
    real space projection operators read in
  non local Contribution for L=           2  read in
    real space projection operators read in
  non local Contribution for L=           0  read in
    real space projection operators read in
  non local Contribution for L=           0  read in
    real space projection operators read in
  non local Contribution for L=           1  read in
    real space projection operators read in
    PAW grid and wavefunctions read in
 
   number of l-projection  operators is LMAX  =           5
   number of lm-projection operators is LMMAX =          15
 

 ----------------------------------------------------------------------------- 
|                                                                             |
|  ADVICE TO THIS USER RUNNING 'VASP/VAMP'   (HEAR YOUR MASTER'S VOICE ...):  |
|                                                                             |
|      You have a (more or less) 'large supercell' and for larger cells       |
|      it might be more efficient to use real space projection operators      |
|      So try LREAL= Auto  in the INCAR   file.                               |
|      Mind: If you want to do a very accurate calculations keep the          |
|      reciprocal projection scheme          (i.e. LREAL=.FALSE.)             |
|                                                                             |
 ----------------------------------------------------------------------------- 

 PAW_PBE Al 04Jan2001                   :
 energy of atom  1       EATOM=  -53.5387
 kinetic energy error for atom=    0.0005 (will be added to EATOM!!)
 PAW_PBE Ca_pv 06Sep2000                :
 energy of atom  2       EATOM= -612.5326
 kinetic energy error for atom=    0.0002 (will be added to EATOM!!)
 PAW_PBE Mg 05Jan2001                   :
 energy of atom  3       EATOM=  -23.0029
 kinetic energy error for atom=    0.0001 (will be added to EATOM!!)
 PAW_PBE O 08Apr2002                    :
 energy of atom  4       EATOM= -432.3788
 kinetic energy error for atom=    0.1156 (will be added to EATOM!!)
 PAW_PBE Ti 08Apr2002                   :
 energy of atom  5       EATOM=  -94.7929
 kinetic energy error for atom=    0.0005 (will be added to EATOM!!)
 
 
 POSCAR: supercell generated structure. e_col = 0
  positions in direct lattice
  velocities in cartesian coordinates
 exchange correlation table for  LEXCH =        8
   RHO(1)=    0.500       N(1)  =     2000
   RHO(2)=  100.500       N(2)  =     4000
 


--------------------------------------------------------------------------------------------------------


 ion  position               nearest neighbor table
   1  0.000  1.000  0.000- 189 1.91 152 1.91 175 1.91 146 1.92 183 1.92 157 1.92  25 2.86  60 2.86
                            35 2.86  19 2.87  54 2.87  41 2.87  77 3.36  85 3.36  73 3.36  75 3.36
   2  1.000  0.000  0.500- 156 1.91 191 1.91 166 1.91 185 1.92 150 1.92 172 1.92  27 2.86  64 2.86
                            50 2.86  21 2.87  58 2.87  32 2.87  82 3.36  74 3.36  86 3.36  88 3.36
   3  0.000  0.500  0.000- 164 1.91 177 1.91 187 1.91 158 1.92 171 1.92 145 1.92  37 2.86  48 2.86
                            23 2.86  42 2.87  31 2.87  53 2.87  73 3.36  77 3.36  81 3.36  79 3.36
   4  1.000  0.500  0.500- 168 1.91 179 1.91 154 1.91 173 1.92 162 1.92 184 1.92  52 2.86  39 2.86
                            62 2.86  33 2.87  46 2.87  20 2.87  86 3.36  82 3.36  78 3.36  84 3.36
   5  0.500  1.000  0.000- 176 1.91 165 1.91 151 1.91 170 1.92 159 1.92 181 1.92  36 2.86  49 2.86
                            59 2.86  43 2.87  30 2.87  17 2.87  85 3.36  77 3.36  81 3.36  83 3.36
   6  0.500  0.000  0.500- 180 1.91 167 1.91 190 1.91 174 1.92 161 1.92 148 1.92  51 2.86  40 2.86
                            26 2.86  34 2.87  45 2.87  56 2.87  74 3.36  82 3.36  78 3.36  80 3.36
   7  0.500  0.500  0.000- 188 1.91 153 1.91 163 1.91 182 1.92 147 1.92 169 1.92  24 2.86  61 2.86
                            47 2.86  18 2.87  55 2.87  29 2.87  81 3.36  85 3.36  73 3.36  87 3.36
   8  0.500  0.500  0.500- 192 1.91 155 1.91 178 1.91 186 1.92 149 1.92 160 1.92  28 2.86  63 2.86
                            38 2.86  22 2.87  57 2.87  44 2.87  78 3.36  86 3.36  74 3.36  88 3.36
   9  1.000  0.000  0.239- 141 1.79 122 1.79 127 1.79  89 1.91  92 2.51  65 3.34  71 3.34  69 3.34

  10  0.000  1.000  0.739- 143 1.79 126 1.79 136 1.79  90 1.91  91 2.51  72 3.34  66 3.34  68 3.34

  11  1.000  0.500  0.239- 128 1.79 135 1.79 121 1.79  93 1.91  96 2.51  67 3.34  69 3.34  71 3.34

  12  0.000  0.500  0.739- 137 1.79 132 1.79 142 1.79  94 1.91  95 2.51  70 3.34  68 3.34  66 3.34

  13  0.500  0.000  0.239- 129 1.79 134 1.79 139 1.79  97 1.91 100 2.51  67 3.34  69 3.34  65 3.34

  14  0.500  1.000  0.739- 138 1.79 131 1.79 124 1.79  98 1.91  99 2.51  70 3.34  68 3.34  72 3.34

  15  0.500  0.500  0.239- 140 1.79 123 1.79 133 1.79 101 1.91 104 2.51  71 3.34  65 3.34  67 3.34

  16  0.500  0.500  0.739- 125 1.79 144 1.79 130 1.79 102 1.91 103 2.51  72 3.34  66 3.34  70 3.34

  17  0.417  0.083  0.105- 194 1.91 195 1.91 107 1.92 159 1.92 170 1.92  97 1.97  43 2.86  30 2.86
                            19 2.87  18 2.87   5 2.87  77 3.37  81 3.37  75 3.37
  18  0.417  0.333  0.105- 193 1.91 195 1.91 107 1.92 169 1.92 147 1.92 101 1.97  55 2.86  29 2.86
                            19 2.87  17 2.87   7 2.87  81 3.37  73 3.37  75 3.37
  19  0.167  0.083  0.105- 193 1.91 194 1.91 107 1.92 157 1.92 146 1.92  89 1.97  41 2.86  54 2.86
                            17 2.87  18 2.87   1 2.87  77 3.37  73 3.37  75 3.37
  20  0.083  0.417  0.605- 198 1.91 197 1.91 108 1.92 173 1.92 162 1.92  94 1.97  33 2.86  46 2.86
                            21 2.87  22 2.87   4 2.87  78 3.37  82 3.37  76 3.37
  21  0.083  0.167  0.605- 196 1.91 198 1.91 108 1.92 172 1.92 150 1.92  90 1.97  32 2.86  58 2.86
                            20 2.87  22 2.87   2 2.87  82 3.37  74 3.37  76 3.37
  22  0.333  0.417  0.605- 196 1.91 197 1.91 108 1.92 160 1.92 149 1.92 102 1.97  57 2.86  44 2.86
                            21 2.87  20 2.87   8 2.87  78 3.37  74 3.37  76 3.37
  23  0.082  0.418  0.895-  95 1.91 177 1.93 164 1.93 105 1.94 200 1.94 201 1.94  37 2.81  48 2.81
                             3 2.86  25 2.92  24 2.92  83 3.37  79 3.37  73 3.38  66 3.46
  24  0.336  0.418  0.895- 103 1.91 153 1.93 163 1.93 105 1.94 199 1.94 201 1.94  47 2.81  61 2.81
                             7 2.86  25 2.92  23 2.92  75 3.37  79 3.37  73 3.38  66 3.46
  25  0.082  0.164  0.895-  91 1.91 152 1.93 175 1.93 105 1.94 199 1.94 200 1.94  35 2.81  60 2.81
                             1 2.86  24 2.92  23 2.92  75 3.37  83 3.37  73 3.38  66 3.46
  26  0.418  0.082  0.395- 100 1.91 180 1.93 167 1.93 106 1.94 204 1.94 203 1.94  51 2.81  40 2.81
                             6 2.86  27 2.92  28 2.92  80 3.37  84 3.37  74 3.38  65 3.46
  27  0.164  0.082  0.395-  92 1.91 156 1.93 166 1.93 106 1.94 202 1.94 204 1.94  50 2.81  64 2.81
                             2 2.86  28 2.92  26 2.92  76 3.37  80 3.37  74 3.38  65 3.46
  28  0.418  0.336  0.395- 104 1.91 155 1.93 178 1.93 106 1.94 202 1.94 203 1.94  38 2.81  63 2.81
                             8 2.86  27 2.92  26 2.92  76 3.37  84 3.37  74 3.38  65 3.46
  29  0.417  0.583  0.105- 206 1.91 207 1.91 111 1.92 147 1.92 182 1.92 101 1.97  18 2.86  55 2.86
                            30 2.87  31 2.87   7 2.87  73 3.37  85 3.37  79 3.37
  30  0.417  0.833  0.105- 205 1.91 207 1.91 111 1.92 181 1.92 159 1.92  97 1.97  43 2.86  17 2.86
                            31 2.87  29 2.87   5 2.87  85 3.37  77 3.37  79 3.37
  31  0.167  0.583  0.105- 205 1.91 206 1.91 111 1.92 145 1.92 158 1.92  93 1.97  42 2.86  53 2.86
                            30 2.87  29 2.87   3 2.87  73 3.37  77 3.37  79 3.37
  32  0.083  0.917  0.605- 210 1.91 209 1.91 112 1.92 185 1.92 150 1.92  90 1.97  21 2.86  58 2.86
                            33 2.87  34 2.87   2 2.87  86 3.37  74 3.37  80 3.37
  33  0.083  0.667  0.605- 208 1.91 210 1.91 112 1.92 184 1.92 162 1.92  94 1.97  20 2.86  46 2.86
                            32 2.87  34 2.87   4 2.87  86 3.37  78 3.37  80 3.37
  34  0.333  0.917  0.605- 208 1.91 209 1.91 112 1.92 148 1.92 161 1.92  98 1.97  56 2.86  45 2.86
                            32 2.87  33 2.87   6 2.87  74 3.37  78 3.37  80 3.37
  35  0.082  0.918  0.895-  91 1.91 189 1.93 152 1.93 109 1.94 212 1.94 213 1.94  25 2.81  60 2.81
                             1 2.86  37 2.92  36 2.92  87 3.37  75 3.37  77 3.38  68 3.46
  36  0.336  0.918  0.895-  99 1.91 165 1.93 151 1.93 109 1.94 211 1.94 213 1.94  59 2.81  49 2.81
                             5 2.86  37 2.92  35 2.92  79 3.37  75 3.37  77 3.38  68 3.46
  37  0.082  0.664  0.895-  95 1.91 164 1.93 187 1.93 109 1.94 211 1.94 212 1.94  23 2.81  48 2.81
                             3 2.86  36 2.92  35 2.92  79 3.37  87 3.37  77 3.38  68 3.46
  38  0.418  0.582  0.395- 104 1.91 155 1.93 192 1.93 110 1.94 216 1.94 215 1.94  28 2.81  63 2.81
                             8 2.86  40 2.92  39 2.92  76 3.37  88 3.37  78 3.38  67 3.46
  39  0.164  0.582  0.395-  96 1.91 168 1.93 154 1.93 110 1.94 214 1.94 216 1.94  62 2.81  52 2.81
                             4 2.86  40 2.92  38 2.92  80 3.37  76 3.37  78 3.38  67 3.46
  40  0.418  0.836  0.395- 100 1.91 167 1.93 190 1.93 110 1.94 214 1.94 215 1.94  26 2.81  51 2.81
                             6 2.86  39 2.92  38 2.92  80 3.37  88 3.37  78 3.38  67 3.46
  41  0.917  0.083  0.105- 219 1.91 218 1.91 115 1.92 183 1.92 146 1.92  89 1.97  54 2.86  19 2.86
                            43 2.87  42 2.87   1 2.87  85 3.37  73 3.37  83 3.37
  42  0.917  0.333  0.105- 217 1.91 219 1.91 115 1.92 145 1.92 171 1.92  93 1.97  53 2.86  31 2.86
                            41 2.87  43 2.87   3 2.87  73 3.37  81 3.37  83 3.37
  43  0.667  0.083  0.105- 217 1.91 218 1.91 115 1.92 181 1.92 170 1.92  97 1.97  17 2.86  30 2.86
                            41 2.87  42 2.87   5 2.87  85 3.37  81 3.37  83 3.37
  44  0.583  0.417  0.605- 222 1.91 221 1.91 116 1.92 186 1.92 149 1.92 102 1.97  22 2.86  57 2.86
                            46 2.87  45 2.87   8 2.87  86 3.37  74 3.37  84 3.37
  45  0.583  0.167  0.605- 220 1.91 222 1.91 116 1.92 148 1.92 174 1.92  98 1.97  34 2.86  56 2.86
                            46 2.87  44 2.87   6 2.87  74 3.37  82 3.37  84 3.37
  46  0.833  0.417  0.605- 220 1.91 221 1.91 116 1.92 184 1.92 173 1.92  94 1.97  33 2.86  20 2.86
                            45 2.87  44 2.87   4 2.87  86 3.37  82 3.37  84 3.37
  47  0.582  0.418  0.895- 103 1.91 188 1.93 153 1.93 113 1.94 224 1.94 225 1.94  24 2.81  61 2.81
                             7 2.86  48 2.92  49 2.92  87 3.37  75 3.37  81 3.38  70 3.46
  48  0.836  0.418  0.895-  95 1.91 177 1.93 187 1.93 113 1.94 223 1.94 225 1.94  23 2.81  37 2.81
                             3 2.86  49 2.92  47 2.92  83 3.37  87 3.37  81 3.38  70 3.46
  49  0.582  0.164  0.895-  99 1.91 176 1.93 151 1.93 113 1.94 223 1.94 224 1.94  59 2.81  36 2.81
                             5 2.86  48 2.92  47 2.92  83 3.37  75 3.37  81 3.38  70 3.46
  50  0.918  0.082  0.395-  92 1.91 191 1.93 156 1.93 114 1.94 227 1.94 228 1.94  64 2.81  27 2.81
                             2 2.86  51 2.92  52 2.92  88 3.37  76 3.37  82 3.38  69 3.46
  51  0.664  0.082  0.395- 100 1.91 180 1.93 190 1.93 114 1.94 226 1.94 228 1.94  26 2.81  40 2.81
                             6 2.86  52 2.92  50 2.92  84 3.37  88 3.37  82 3.38  69 3.46
  52  0.918  0.336  0.395-  96 1.91 179 1.93 154 1.93 114 1.94 226 1.94 227 1.94  62 2.81  39 2.81
                             4 2.86  51 2.92  50 2.92  84 3.37  76 3.37  82 3.38  69 3.46
  53  0.917  0.583  0.105- 231 1.91 230 1.91 119 1.92 171 1.92 158 1.92  93 1.97  42 2.86  31 2.86
                            54 2.87  55 2.87   3 2.87  81 3.37  77 3.37  87 3.37
  54  0.917  0.833  0.105- 229 1.91 231 1.91 119 1.92 157 1.92 183 1.92  89 1.97  41 2.86  19 2.86
                            53 2.87  55 2.87   1 2.87  77 3.37  85 3.37  87 3.37
  55  0.667  0.583  0.105- 229 1.91 230 1.91 119 1.92 169 1.92 182 1.92 101 1.97  18 2.86  29 2.86
                            54 2.87  53 2.87   7 2.87  81 3.37  85 3.37  87 3.37
  56  0.583  0.917  0.605- 234 1.91 233 1.91 120 1.92 161 1.92 174 1.92  98 1.97  34 2.86  45 2.86
                            58 2.87  57 2.87   6 2.87  82 3.37  78 3.37  88 3.37
  57  0.583  0.667  0.605- 232 1.91 234 1.91 120 1.92 160 1.92 186 1.92 102 1.97  22 2.86  44 2.86
                            58 2.87  56 2.87   8 2.87  78 3.37  86 3.37  88 3.37
  58  0.833  0.917  0.605- 232 1.91 233 1.91 120 1.92 172 1.92 185 1.92  90 1.97  32 2.86  21 2.86
                            56 2.87  57 2.87   2 2.87  82 3.37  86 3.37  88 3.37
  59  0.582  0.918  0.895-  99 1.91 165 1.93 176 1.93 117 1.94 236 1.94 237 1.94  36 2.81  49 2.81
                             5 2.86  60 2.92  61 2.92  83 3.37  79 3.37  85 3.38  72 3.46
  60  0.836  0.918  0.895-  91 1.91 189 1.93 175 1.93 117 1.94 235 1.94 237 1.94  35 2.81  25 2.81
                             1 2.86  61 2.92  59 2.92  87 3.37  83 3.37  85 3.38  72 3.46
  61  0.582  0.664  0.895- 103 1.91 188 1.93 163 1.93 117 1.94 235 1.94 236 1.94  47 2.81  24 2.81
                             7 2.86  60 2.92  59 2.92  87 3.37  79 3.37  85 3.38  72 3.46
  62  0.918  0.582  0.395-  96 1.91 179 1.93 168 1.93 118 1.94 239 1.94 240 1.94  52 2.81  39 2.81
                             4 2.86  64 2.92  63 2.92  80 3.37  84 3.37  86 3.38  71 3.46
  63  0.664  0.582  0.395- 104 1.91 192 1.93 178 1.93 118 1.94 238 1.94 240 1.94  38 2.81  28 2.81
                             8 2.86  64 2.92  62 2.92  88 3.37  84 3.37  86 3.38  71 3.46
  64  0.918  0.836  0.395-  92 1.91 191 1.93 166 1.93 118 1.94 238 1.94 239 1.94  50 2.81  27 2.81
                             2 2.86  63 2.92  62 2.92  88 3.37  80 3.37  86 3.38  71 3.46
  65  0.333  0.167  0.260- 202 2.55 204 2.55 203 2.55 123 2.88 122 2.88 133 2.88 127 2.88 129 2.88
                           134 2.88 193 2.93 194 2.93 195 2.93   9 3.34  15 3.34  13 3.34  27 3.46
  66  0.167  0.333  0.760- 199 2.55 201 2.55 200 2.55 125 2.88 126 2.88 130 2.88 136 2.88 137 2.88
                           132 2.88 196 2.93 197 2.93 198 2.93  10 3.34  16 3.34  12 3.34  25 3.46
  67  0.333  0.667  0.260- 214 2.55 215 2.55 216 2.55 129 2.88 128 2.88 139 2.88 121 2.88 140 2.88
                           123 2.88 205 2.93 207 2.93 206 2.93  13 3.34  11 3.34  15 3.34  40 3.46
  68  0.167  0.833  0.760- 211 2.55 213 2.55 212 2.55 131 2.88 132 2.88 124 2.88 142 2.88 143 2.88
                           126 2.88 208 2.93 209 2.93 210 2.93  14 3.34  12 3.34  10 3.34  36 3.46
  69  0.833  0.167  0.260- 226 2.55 228 2.55 227 2.55 135 2.88 134 2.88 139 2.88 121 2.88 141 2.88
                           122 2.88 217 2.93 218 2.93 219 2.93  13 3.34  11 3.34   9 3.34  51 3.46
  70  0.667  0.333  0.760- 223 2.55 225 2.55 224 2.55 137 2.88 138 2.88 142 2.88 124 2.88 144 2.88
                           125 2.88 220 2.93 221 2.93 222 2.93  12 3.34  14 3.34  16 3.34  48 3.46
  71  0.833  0.667  0.260- 238 2.55 240 2.55 239 2.55 140 2.88 141 2.88 133 2.88 127 2.88 128 2.88
                           135 2.88 229 2.93 230 2.93 231 2.93   9 3.34  15 3.34  11 3.34  64 3.46
  72  0.667  0.833  0.760- 235 2.55 237 2.55 236 2.55 143 2.88 144 2.88 136 2.88 130 2.88 138 2.88
                           131 2.88 232 2.93 233 2.93 234 2.93  10 3.34  16 3.34  14 3.34  60 3.46
  73  0.167  0.333  0.026- 145 1.96 147 1.96 146 1.96 105 1.98   3 3.36   7 3.36   1 3.36  31 3.37
                            42 3.37  18 3.37  29 3.37  19 3.37  41 3.37  25 3.38  24 3.38  23 3.38
  74  0.333  0.167  0.526- 148 1.96 149 1.96 150 1.96 106 1.98   6 3.36   8 3.36   2 3.36  45 3.37
                            34 3.37  22 3.37  21 3.37  44 3.37  32 3.37  27 3.38  28 3.38  26 3.38
  75  0.333  0.167  0.974- 151 1.94 153 1.94 152 1.94 107 1.97   7 3.36   1 3.36   5 3.36  24 3.37
                            25 3.37  49 3.37  36 3.37  47 3.37  35 3.37  19 3.37  18 3.37  17 3.37
  76  0.167  0.333  0.474- 155 1.94 154 1.94 156 1.94 108 1.97   8 3.36   2 3.36   4 3.36  28 3.37
                            27 3.37  39 3.37  52 3.37  38 3.37  50 3.37  21 3.37  22 3.37  20 3.37
  77  0.167  0.833  0.026- 157 1.96 159 1.96 158 1.96 109 1.98   1 3.36   5 3.36   3 3.36  19 3.37
                            54 3.37  31 3.37  30 3.37  17 3.37  53 3.37  36 3.38  37 3.38  35 3.38
  78  0.333  0.667  0.526- 160 1.96 161 1.96 162 1.96 110 1.98   8 3.36   6 3.36   4 3.36  22 3.37
                            57 3.37  34 3.37  33 3.37  56 3.37  20 3.37  40 3.38  39 3.38  38 3.38
  79  0.333  0.667  0.974- 163 1.94 165 1.94 164 1.94 111 1.97   5 3.36   3 3.36   7 3.36  36 3.37
                            37 3.37  24 3.37  61 3.37  59 3.37  23 3.37  30 3.37  31 3.37  29 3.37
  80  0.167  0.833  0.474- 167 1.94 166 1.94 168 1.94 112 1.97   6 3.36   4 3.36   2 3.36  39 3.37
                            40 3.37  27 3.37  64 3.37  26 3.37  62 3.37  34 3.37  33 3.37  32 3.37
  81  0.667  0.333  0.026- 169 1.96 170 1.96 171 1.96 113 1.98   7 3.36   3 3.36   5 3.36  55 3.37
                            18 3.37  42 3.37  43 3.37  53 3.37  17 3.37  48 3.38  49 3.38  47 3.38
  82  0.833  0.167  0.526- 172 1.96 174 1.96 173 1.96 114 1.98   2 3.36   6 3.36   4 3.36  58 3.37
                            21 3.37  45 3.37  46 3.37  56 3.37  20 3.37  51 3.38  52 3.38  50 3.38
  83  0.833  0.167  0.974- 176 1.94 177 1.94 175 1.94 115 1.97   5 3.36   3 3.36   1 3.36  49 3.37
                            48 3.37  60 3.37  25 3.37  59 3.37  23 3.37  43 3.37  42 3.37  41 3.37
  84  0.667  0.333  0.474- 178 1.94 180 1.94 179 1.94 116 1.97   4 3.36   6 3.36   8 3.36  52 3.37
                            51 3.37  63 3.37  28 3.37  62 3.37  26 3.37  46 3.37  45 3.37  44 3.37
  85  0.667  0.833  0.026- 181 1.96 182 1.96 183 1.96 117 1.98   5 3.36   7 3.36   1 3.36  43 3.37
                            30 3.37  55 3.37  54 3.37  41 3.37  29 3.37  60 3.38  61 3.38  59 3.38
  86  0.833  0.667  0.526- 184 1.96 186 1.96 185 1.96 118 1.98   4 3.36   8 3.36   2 3.36  46 3.37
                            33 3.37  57 3.37  58 3.37  44 3.37  32 3.37  64 3.38  63 3.38  62 3.38
  87  0.833  0.667  0.974- 188 1.94 187 1.94 189 1.94 119 1.97   7 3.36   1 3.36   3 3.36  61 3.37
                            60 3.37  48 3.37  37 3.37  47 3.37  35 3.37  54 3.37  55 3.37  53 3.37
  88  0.667  0.833  0.474- 192 1.94 190 1.94 191 1.94 120 1.97   8 3.36   2 3.36   6 3.36  63 3.37
                            64 3.37  51 3.37  40 3.37  50 3.37  38 3.37  58 3.37  57 3.37  56 3.37
  89  0.000  1.000  0.153-   9 1.91  41 1.97  19 1.97  54 1.97
  90  1.000  0.000  0.653-  10 1.91  32 1.97  21 1.97  58 1.97
  91  0.000  1.000  0.850-  35 1.91  25 1.91  60 1.91  10 2.51
  92  1.000  0.000  0.350-  50 1.91  27 1.91  64 1.91   9 2.51
  93  0.000  0.500  0.153-  11 1.91  53 1.97  42 1.97  31 1.97
  94  1.000  0.500  0.653-  12 1.91  20 1.97  33 1.97  46 1.97
  95  0.000  0.500  0.850-  23 1.91  37 1.91  48 1.91  12 2.51
  96  1.000  0.500  0.350-  62 1.91  52 1.91  39 1.91  11 2.51
  97  0.500  1.000  0.153-  13 1.91  17 1.97  43 1.97  30 1.97
  98  0.500  0.000  0.653-  14 1.91  56 1.97  34 1.97  45 1.97
  99  0.500  1.000  0.850-  59 1.91  36 1.91  49 1.91  14 2.51
 100  0.500  0.000  0.350-  26 1.91  51 1.91  40 1.91  13 2.51
 101  0.500  0.500  0.153-  15 1.91  29 1.97  18 1.97  55 1.97
 102  0.500  0.500  0.653-  16 1.91  44 1.97  22 1.97  57 1.97
 103  0.500  0.500  0.850-  47 1.91  24 1.91  61 1.91  16 2.51
 104  0.500  0.500  0.350-  38 1.91  28 1.91  63 1.91  15 2.51
 105  0.167  0.333  0.938-  25 1.94  24 1.94  23 1.94  73 1.98
 106  0.333  0.167  0.438-  27 1.94  28 1.94  26 1.94  74 1.98
 107  0.333  0.167  0.062-  17 1.92  19 1.92  18 1.92  75 1.97
 108  0.167  0.333  0.562-  20 1.92  21 1.92  22 1.92  76 1.97
 109  0.167  0.833  0.938-  36 1.94  37 1.94  35 1.94  77 1.98
 110  0.333  0.667  0.438-  40 1.94  39 1.94  38 1.94  78 1.98
 111  0.333  0.667  0.062-  29 1.92  30 1.92  31 1.92  79 1.97
 112  0.167  0.833  0.562-  32 1.92  34 1.92  33 1.92  80 1.97
 113  0.667  0.333  0.938-  48 1.94  49 1.94  47 1.94  81 1.98
 114  0.833  0.167  0.438-  51 1.94  52 1.94  50 1.94  82 1.98
 115  0.833  0.167  0.062-  41 1.92  43 1.92  42 1.92  83 1.97
 116  0.667  0.333  0.562-  44 1.92  46 1.92  45 1.92  84 1.97
 117  0.667  0.833  0.938-  60 1.94  61 1.94  59 1.94  85 1.98
 118  0.833  0.667  0.438-  64 1.94  63 1.94  62 1.94  86 1.98
 119  0.833  0.667  0.062-  53 1.92  54 1.92  55 1.92  87 1.97
 120  0.667  0.833  0.562-  56 1.92  58 1.92  57 1.92  88 1.97
 121  0.089  0.411  0.249-  11 1.79 242 2.08 243 2.09  69 2.88  67 2.88
 122  0.089  0.179  0.249-   9 1.79 242 2.08 243 2.09  65 2.88  69 2.88
 123  0.321  0.411  0.249-  15 1.79 242 2.08 243 2.09  65 2.88  67 2.88
 124  0.411  0.089  0.749-  14 1.79 241 2.08 244 2.09  68 2.88  70 2.88
 125  0.411  0.321  0.749-  16 1.79 241 2.08 244 2.09  66 2.88  70 2.88
 126  0.179  0.089  0.749-  10 1.79 241 2.08 244 2.09  66 2.88  68 2.88
 127  0.089  0.911  0.249-   9 1.79 246 2.08 247 2.09  65 2.88  71 2.88
 128  0.089  0.679  0.249-  11 1.79 246 2.08 247 2.09  67 2.88  71 2.88
 129  0.321  0.911  0.249-  13 1.79 246 2.08 247 2.09  67 2.88  65 2.88
 130  0.411  0.589  0.749-  16 1.79 245 2.08 248 2.09  66 2.88  72 2.88
 131  0.411  0.821  0.749-  14 1.79 245 2.08 248 2.09  68 2.88  72 2.88
 132  0.179  0.589  0.749-  12 1.79 245 2.08 248 2.09  68 2.88  66 2.88
 133  0.589  0.411  0.249-  15 1.79 250 2.08 251 2.09  71 2.88  65 2.88
 134  0.589  0.179  0.249-  13 1.79 250 2.08 251 2.09  69 2.88  65 2.88
 135  0.821  0.411  0.249-  11 1.79 250 2.08 251 2.09  69 2.88  71 2.88
 136  0.911  0.089  0.749-  10 1.79 249 2.08 252 2.09  72 2.88  66 2.88
 137  0.911  0.321  0.749-  12 1.79 249 2.08 252 2.09  70 2.88  66 2.88
 138  0.679  0.089  0.749-  14 1.79 249 2.08 252 2.09  70 2.88  72 2.88
 139  0.589  0.911  0.249-  13 1.79 254 2.08 255 2.09  69 2.88  67 2.88
 140  0.589  0.679  0.249-  15 1.79 254 2.08 255 2.09  71 2.88  67 2.88
 141  0.821  0.911  0.249-   9 1.79 254 2.08 255 2.09  71 2.88  69 2.88
 142  0.911  0.589  0.749-  12 1.79 253 2.08 256 2.09  68 2.88  70 2.88
 143  0.911  0.821  0.749-  10 1.79 253 2.08 256 2.09  72 2.88  68 2.88
 144  0.679  0.589  0.749-  16 1.79 253 2.08 256 2.09  72 2.88  70 2.88
 145  0.074  0.426  0.056-   3 1.92  42 1.92  31 1.92  73 1.96
 146  0.074  0.148  0.056-   1 1.92  19 1.92  41 1.92  73 1.96
 147  0.352  0.426  0.056-   7 1.92  18 1.92  29 1.92  73 1.96
 148  0.426  0.074  0.556-   6 1.92  34 1.92  45 1.92  74 1.96
 149  0.426  0.352  0.556-   8 1.92  22 1.92  44 1.92  74 1.96
 150  0.148  0.074  0.556-   2 1.92  21 1.92  32 1.92  74 1.96
 151  0.426  0.074  0.946-   5 1.91  36 1.93  49 1.93  75 1.94
 152  0.148  0.074  0.946-   1 1.91  25 1.93  35 1.93  75 1.94
 153  0.426  0.352  0.946-   7 1.91  24 1.93  47 1.93  75 1.94
 154  0.074  0.426  0.446-   4 1.91  52 1.93  39 1.93  76 1.94
 155  0.352  0.426  0.446-   8 1.91  28 1.93  38 1.93  76 1.94
 156  0.074  0.148  0.446-   2 1.91  27 1.93  50 1.93  76 1.94
 157  0.074  0.926  0.056-   1 1.92  54 1.92  19 1.92  77 1.96
 158  0.074  0.648  0.056-   3 1.92  31 1.92  53 1.92  77 1.96
 159  0.352  0.926  0.056-   5 1.92  30 1.92  17 1.92  77 1.96
 160  0.426  0.574  0.556-   8 1.92  22 1.92  57 1.92  78 1.96
 161  0.426  0.852  0.556-   6 1.92  34 1.92  56 1.92  78 1.96
 162  0.148  0.574  0.556-   4 1.92  33 1.92  20 1.92  78 1.96
 163  0.426  0.574  0.946-   7 1.91  24 1.93  61 1.93  79 1.94
 164  0.148  0.574  0.946-   3 1.91  37 1.93  23 1.93  79 1.94
 165  0.426  0.852  0.946-   5 1.91  36 1.93  59 1.93  79 1.94
 166  0.074  0.926  0.446-   2 1.91  64 1.93  27 1.93  80 1.94
 167  0.352  0.926  0.446-   6 1.91  40 1.93  26 1.93  80 1.94
 168  0.074  0.648  0.446-   4 1.91  39 1.93  62 1.93  80 1.94
 169  0.574  0.426  0.056-   7 1.92  55 1.92  18 1.92  81 1.96
 170  0.574  0.148  0.056-   5 1.92  43 1.92  17 1.92  81 1.96
 171  0.852  0.426  0.056-   3 1.92  42 1.92  53 1.92  81 1.96
 172  0.926  0.074  0.556-   2 1.92  21 1.92  58 1.92  82 1.96
 173  0.926  0.352  0.556-   4 1.92  46 1.92  20 1.92  82 1.96
 174  0.648  0.074  0.556-   6 1.92  45 1.92  56 1.92  82 1.96
 175  0.926  0.074  0.946-   1 1.91  25 1.93  60 1.93  83 1.94
 176  0.648  0.074  0.946-   5 1.91  49 1.93  59 1.93  83 1.94
 177  0.926  0.352  0.946-   3 1.91  48 1.93  23 1.93  83 1.94
 178  0.574  0.426  0.446-   8 1.91  63 1.93  28 1.93  84 1.94
 179  0.852  0.426  0.446-   4 1.91  52 1.93  62 1.93  84 1.94
 180  0.574  0.148  0.446-   6 1.91  51 1.93  26 1.93  84 1.94
 181  0.574  0.926  0.056-   5 1.92  43 1.92  30 1.92  85 1.96
 182  0.574  0.648  0.056-   7 1.92  55 1.92  29 1.92  85 1.96
 183  0.852  0.926  0.056-   1 1.92  54 1.92  41 1.92  85 1.96
 184  0.926  0.574  0.556-   4 1.92  33 1.92  46 1.92  86 1.96
 185  0.926  0.852  0.556-   2 1.92  58 1.92  32 1.92  86 1.96
 186  0.648  0.574  0.556-   8 1.92  57 1.92  44 1.92  86 1.96
 187  0.926  0.574  0.946-   3 1.91  37 1.93  48 1.93  87 1.94
 188  0.648  0.574  0.946-   7 1.91  61 1.93  47 1.93  87 1.94
 189  0.926  0.852  0.946-   1 1.91  60 1.93  35 1.93  87 1.94
 190  0.574  0.926  0.446-   6 1.91  51 1.93  40 1.93  88 1.94
 191  0.852  0.926  0.446-   2 1.91  64 1.93  50 1.93  88 1.94
 192  0.574  0.648  0.446-   8 1.91  63 1.93  38 1.93  88 1.94
 193  0.253  0.247  0.150- 243 1.89  19 1.91  18 1.91  65 2.93
 194  0.253  0.006  0.150- 247 1.89  17 1.91  19 1.91  65 2.93
 195  0.494  0.247  0.150- 251 1.89  17 1.91  18 1.91  65 2.93
 196  0.247  0.253  0.650- 244 1.89  21 1.91  22 1.91  66 2.93
 197  0.247  0.494  0.650- 248 1.89  20 1.91  22 1.91  66 2.93
 198  0.006  0.253  0.650- 252 1.89  20 1.91  21 1.91  66 2.93
 199  0.247  0.253  0.849- 241 1.90  25 1.94  24 1.94  66 2.55
 200  0.006  0.253  0.849- 249 1.90  23 1.94  25 1.94  66 2.55
 201  0.247  0.494  0.849- 245 1.90  23 1.94  24 1.94  66 2.55
 202  0.253  0.247  0.349- 242 1.90  27 1.94  28 1.94  65 2.55
 203  0.494  0.247  0.349- 250 1.90  26 1.94  28 1.94  65 2.55
 204  0.253  0.006  0.349- 246 1.90  26 1.94  27 1.94  65 2.55
 205  0.253  0.747  0.150- 247 1.89  31 1.91  30 1.91  67 2.93
 206  0.253  0.506  0.150- 243 1.89  29 1.91  31 1.91  67 2.93
 207  0.494  0.747  0.150- 255 1.89  29 1.91  30 1.91  67 2.93
 208  0.247  0.753  0.650- 248 1.89  34 1.91  33 1.91  68 2.93
 209  0.247  0.994  0.650- 244 1.89  32 1.91  34 1.91  68 2.93
 210  0.006  0.753  0.650- 256 1.89  32 1.91  33 1.91  68 2.93
 211  0.247  0.753  0.849- 245 1.90  36 1.94  37 1.94  68 2.55
 212  0.006  0.753  0.849- 253 1.90  35 1.94  37 1.94  68 2.55
 213  0.247  0.994  0.849- 241 1.90  35 1.94  36 1.94  68 2.55
 214  0.253  0.747  0.349- 246 1.90  39 1.94  40 1.94  67 2.55
 215  0.494  0.747  0.349- 254 1.90  38 1.94  40 1.94  67 2.55
 216  0.253  0.506  0.349- 242 1.90  38 1.94  39 1.94  67 2.55
 217  0.753  0.247  0.150- 251 1.89  42 1.91  43 1.91  69 2.93
 218  0.753  0.006  0.150- 255 1.89  41 1.91  43 1.91  69 2.93
 219  0.994  0.247  0.150- 243 1.89  41 1.91  42 1.91  69 2.93
 220  0.747  0.253  0.650- 252 1.89  46 1.91  45 1.91  70 2.93
 221  0.747  0.494  0.650- 256 1.89  44 1.91  46 1.91  70 2.93
 222  0.506  0.253  0.650- 244 1.89  44 1.91  45 1.91  70 2.93
 223  0.747  0.253  0.849- 249 1.90  48 1.94  49 1.94  70 2.55
 224  0.506  0.253  0.849- 241 1.90  47 1.94  49 1.94  70 2.55
 225  0.747  0.494  0.849- 253 1.90  47 1.94  48 1.94  70 2.55
 226  0.753  0.247  0.349- 250 1.90  52 1.94  51 1.94  69 2.55
 227  0.994  0.247  0.349- 242 1.90  50 1.94  52 1.94  69 2.55
 228  0.753  0.006  0.349- 254 1.90  50 1.94  51 1.94  69 2.55
 229  0.753  0.747  0.150- 255 1.89  54 1.91  55 1.91  71 2.93
 230  0.753  0.506  0.150- 251 1.89  53 1.91  55 1.91  71 2.93
 231  0.994  0.747  0.150- 247 1.89  53 1.91  54 1.91  71 2.93
 232  0.747  0.753  0.650- 256 1.89  58 1.91  57 1.91  72 2.93
 233  0.747  0.994  0.650- 252 1.89  56 1.91  58 1.91  72 2.93
 234  0.506  0.753  0.650- 248 1.89  56 1.91  57 1.91  72 2.93
 235  0.747  0.753  0.849- 253 1.90  60 1.94  61 1.94  72 2.55
 236  0.506  0.753  0.849- 245 1.90  59 1.94  61 1.94  72 2.55
 237  0.747  0.994  0.849- 249 1.90  59 1.94  60 1.94  72 2.55
 238  0.753  0.747  0.349- 254 1.90  64 1.94  63 1.94  71 2.55
 239  0.994  0.747  0.349- 246 1.90  62 1.94  64 1.94  71 2.55
 240  0.753  0.506  0.349- 250 1.90  62 1.94  63 1.94  71 2.55
 241  0.333  0.167  0.812- 224 1.90 213 1.90 199 1.90 124 2.08 125 2.08 126 2.08 244 2.82  66 3.51
                            70 3.51  68 3.51
 242  0.167  0.333  0.312- 216 1.90 227 1.90 202 1.90 121 2.08 123 2.08 122 2.08 243 2.82  65 3.51
                            67 3.51  69 3.51
 243  0.167  0.333  0.186- 206 1.89 219 1.89 193 1.89 123 2.09 122 2.09 121 2.09 242 2.82
 244  0.333  0.167  0.686- 222 1.89 209 1.89 196 1.89 125 2.09 126 2.09 124 2.09 241 2.82
 245  0.333  0.667  0.812- 201 1.90 236 1.90 211 1.90 130 2.08 132 2.08 131 2.08 248 2.82  68 3.51
                            66 3.51  72 3.51
 246  0.167  0.833  0.312- 204 1.90 239 1.90 214 1.90 127 2.08 129 2.08 128 2.08 247 2.82  67 3.51
                            65 3.51  71 3.51
 247  0.167  0.833  0.186- 194 1.89 231 1.89 205 1.89 129 2.09 128 2.09 127 2.09 246 2.82
 248  0.333  0.667  0.686- 197 1.89 234 1.89 208 1.89 132 2.09 131 2.09 130 2.09 245 2.82
 249  0.833  0.167  0.812- 237 1.90 200 1.90 223 1.90 136 2.08 138 2.08 137 2.08 252 2.82  70 3.51
                            72 3.51  66 3.51
 250  0.667  0.333  0.312- 240 1.90 203 1.90 226 1.90 133 2.08 134 2.08 135 2.08 251 2.82  69 3.51
                            71 3.51  65 3.51
 251  0.667  0.333  0.186- 230 1.89 195 1.89 217 1.89 134 2.09 135 2.09 133 2.09 250 2.82
 252  0.833  0.167  0.686- 233 1.89 198 1.89 220 1.89 138 2.09 137 2.09 136 2.09 249 2.82
 253  0.833  0.667  0.812- 225 1.90 212 1.90 235 1.90 142 2.08 144 2.08 143 2.08 256 2.82  72 3.51
                            70 3.51  68 3.51
 254  0.667  0.833  0.312- 215 1.90 228 1.90 238 1.90 139 2.08 140 2.08 141 2.08 255 2.82  71 3.51
                            67 3.51  69 3.51
 255  0.667  0.833  0.186- 207 1.89 218 1.89 229 1.89 140 2.09 141 2.09 139 2.09 254 2.82
 256  0.833  0.667  0.686- 221 1.89 210 1.89 232 1.89 144 2.09 143 2.09 142 2.09 253 2.82
 
  LATTYP: Found a hexagonal cell.
 ALAT       =    11.4574989423
 C/A-ratio  =     1.9554620348
  
  Lattice vectors:
  
 A1 = (  11.4574989423,   0.0000000000,   0.0000000000)
 A2 = (  -5.7287494712,   9.9224851479,   0.0000000000)
 A3 = (   0.0000000000,   0.0000000000,  22.4047041954)


Analysis of symmetry for initial positions (statically):
=====================================================================
 Subroutine PRICEL returns following result:
 
  LATTYP: Found a hexagonal cell.
 ALAT       =     5.7287501174
 C/A-ratio  =     3.9109236284
  
  Lattice vectors:
  
 A1 = (   5.7287498686,   0.0000000000,   0.0000000851)
 A2 = (  -2.8643751831,   4.9612433491,   0.0000000000)
 A3 = (   0.0000000000,   0.0000000000,  22.4047041954)
 
   4 primitive cells build up your supercell.
 

 Routine SETGRP: Setting up the symmetry group for a 
 hexagonal supercell.


 Subroutine GETGRP returns: Found  4 space group operations
 (whereof  2 operations were pure point group operations)
 out of a pool of 24 trial point group operations.


The static configuration has the point symmetry C_1h.
 The point group associated with its full space group is C_2v.


Analysis of symmetry for dynamics (positions and initial velocities):
=====================================================================
 Subroutine PRICEL returns following result:
 
  LATTYP: Found a hexagonal cell.
 ALAT       =     5.7287501174
 C/A-ratio  =     3.9109236284
  
  Lattice vectors:
  
 A1 = (   5.7287498686,   0.0000000000,   0.0000000851)
 A2 = (  -2.8643751831,   4.9612433491,   0.0000000000)
 A3 = (   0.0000000000,   0.0000000000,  22.4047041954)
 
   4 primitive cells build up your supercell.
 

 Routine SETGRP: Setting up the symmetry group for a 
 hexagonal supercell.


 Subroutine GETGRP returns: Found  4 space group operations
 (whereof  2 operations were pure point group operations)
 out of a pool of 24 trial point group operations.


The dynamic configuration has the point symmetry C_1h.
 The point group associated with its full space group is C_2v.


Analysis of structural, dynamic, and magnetic symmetry:
=====================================================================
 Subroutine PRICEL returns following result:
 
  LATTYP: Found a hexagonal cell.
 ALAT       =     5.7287501174
 C/A-ratio  =     3.9109236284
  
  Lattice vectors:
  
 A1 = (   5.7287498686,   0.0000000000,   0.0000000851)
 A2 = (  -2.8643751831,   4.9612433491,   0.0000000000)
 A3 = (   0.0000000000,   0.0000000000,  22.4047041954)
 
   4 primitive cells build up your supercell.
 

 Routine SETGRP: Setting up the symmetry group for a 
 hexagonal supercell.


 Subroutine GETGRP returns: Found  4 space group operations
 (whereof  2 operations were pure point group operations)
 out of a pool of 24 trial point group operations.


The magnetic configuration has the point symmetry C_1h.
 The point group associated with its full space group is C_2v.


 Subroutine INISYM returns: Found  4 space group operations
 (whereof  2 operations are pure point group operations),
 and found     4 'primitive' translations

 
 
 KPOINTS: KPOINTS file                            

Automatic generation of k-mesh.
Space group operators:
 irot       det(A)        alpha          n_x          n_y          n_z        tau_x        tau_y        tau_z
    1     1.000000     0.000001     1.000000     0.000000     0.000000     0.000000     0.000000     0.000000
    2    -1.000000   180.000000    -0.500000    -0.866025     0.000000     0.000000     0.000000     0.000000
    3     1.000000   180.000000     0.000000     0.000000     1.000000     0.000000     0.000000     0.500000
    4    -1.000000   180.000000     0.866025    -0.500000     0.000000     0.000000     0.000000     0.500000
 
 Subroutine IBZKPT returns following result:
 ===========================================
 
 Found      3 irreducible k-points:
 
 Following reciprocal coordinates:
            Coordinates               Weight
  0.000000  0.000000  0.000000      1.000000
  0.500000  0.000000  0.000000      2.000000
  0.500000  0.500000  0.000000      1.000000
 
 Following cartesian coordinates:
            Coordinates               Weight
  0.000000  0.000000  0.000000      1.000000
  0.043640  0.025195  0.000000      2.000000
  0.043640  0.075586  0.000000      1.000000
 
