<?xml version="1.0" encoding="ISO-8859-1"?>
<modeling>
 <generator>
  <i name="program" type="string">vasp </i>
  <i name="version" type="string">5.4.4.18Apr17-6-g9f103f2a35  </i>
  <i name="subversion" type="string">(build Sep 23 2020 14:43:34) complex            parallel </i>
  <i name="platform" type="string">LinuxIFC </i>
  <i name="date" type="string">2022 03 03 </i>
  <i name="time" type="string">18:00:59 </i>
 </generator>
 <incar>
  <i type="string" name="SYSTEM"> Hibonite</i>
  <i type="string" name="PREC">accurate</i>
  <i type="int" name="ISPIN">     2</i>
  <i type="int" name="IBRION">    -1</i>
  <i name="EDIFF">      0.00000010</i>
  <i type="logical" name="LREAL"> F  </i>
  <i type="int" name="ISMEAR">    -5</i>
  <i type="logical" name="LWAVE"> F  </i>
  <i type="logical" name="LCHARG"> F  </i>
  <i type="int" name="LORBIT">    11</i>
  <v type="int" name="KPOINT_BSE">    -1     0     0     0</v>
  <i type="int" name="VOSKOWN">     1</i>
 </incar>
 <structure name="primitive_cell" >
  <crystal>
   <varray name="basis" >
    <v>       5.72874987       0.00000000       0.00000009 </v>
    <v>      -2.86437518       4.96124335       0.00000000 </v>
    <v>       0.00000000       0.00000000      22.40470420 </v>
   </varray>
   <i name="volume">    636.78027826 </i>
   <varray name="rec_basis" >
    <v>       0.17455815       0.10078120       0.00000000 </v>
    <v>       0.00000000       0.20156238       0.00000000 </v>
    <v>      -0.00000000      -0.00000000       0.04463348 </v>
   </varray>
  </crystal>
  <varray name="positions" >
   <v>       0.00000422      -0.00000422       0.00032628 </v>
   <v>      -0.14844912      -0.29691155      -0.05387840 </v>
   <v>       0.29691157       0.14844918      -0.05387841 </v>
   <v>      -0.14845100       0.14845112      -0.05387844 </v>
   <v>       0.14765145       0.29528997       0.05558725 </v>
   <v>      -0.29529004      -0.14765145       0.05558725 </v>
   <v>       0.14765114      -0.14765120       0.05558771 </v>
   <v>       0.16359338       0.32717347      -0.10500788 </v>
   <v>      -0.32717361      -0.16359348      -0.10500788 </v>
   <v>       0.16359203      -0.16359212      -0.10501039 </v>
   <v>       0.33305970       0.16652317       0.10504804 </v>
   <v>      -0.16652319      -0.33305968       0.10504805 </v>
   <v>      -0.16652309       0.16652301       0.10504859 </v>
   <v>       0.33333692      -0.33333688       0.02596049 </v>
   <v>       0.00000205      -0.00000205      -0.14952227 </v>
   <v>      -0.33333006       0.33333016      -0.02595088 </v>
   <v>       0.00000310      -0.00000310       0.15321530 </v>
   <v>      -0.33332813       0.33332791       0.06193117 </v>
   <v>       0.33333514      -0.33333510      -0.06242665 </v>
   <v>      -0.49420142       0.49420108       0.15000955 </v>
   <v>      -0.01157900       0.49420236       0.15001086 </v>
   <v>      -0.49420249       0.01157903       0.15001087 </v>
   <v>       0.49365559      -0.49365518      -0.15100277 </v>
   <v>       0.49364987      -0.01271223      -0.15100775 </v>
   <v>       0.01271215      -0.49364989      -0.15100775 </v>
   <v>       0.33333710      -0.33333874       0.18626136 </v>
   <v>      -0.00000278       0.00000278       0.23856119 </v>
   <v>      -0.33332416       0.33332393      -0.18778218 </v>
   <v>       0.17861461      -0.17861462       0.24948305 </v>
   <v>      -0.35722233      -0.17866457       0.24948417 </v>
   <v>       0.17866460       0.35722232       0.24948416 </v>
   <v>       0.00000278      -0.00000278      -0.26143883 </v>
   <v>      -0.17866455      -0.35722226      -0.25051590 </v>
   <v>       0.35722233       0.17866456      -0.25051590 </v>
   <v>      -0.17861461       0.17861461      -0.25051701 </v>
   <v>       0.33341783      -0.33341775      -0.24012341 </v>
   <v>      -0.33341776       0.33341771       0.25987654 </v>
   <v>       0.33332401      -0.33332397       0.31221781 </v>
   <v>      -0.33333703       0.33333870      -0.31373867 </v>
   <v>      -0.00000310       0.00000310      -0.34678472 </v>
   <v>      -0.00000205       0.00000205       0.35047766 </v>
   <v>      -0.01271190       0.49365026       0.34899219 </v>
   <v>      -0.49365023       0.01271184       0.34899219 </v>
   <v>      -0.49365547       0.49365517       0.34899718 </v>
   <v>       0.49420235      -0.01157916      -0.34998917 </v>
   <v>       0.01157908      -0.49420237      -0.34998917 </v>
   <v>       0.49420154      -0.49420110      -0.34999048 </v>
   <v>      -0.16359208       0.16359201       0.39498956 </v>
   <v>       0.32717349       0.16359337       0.39499207 </v>
   <v>      -0.16359339      -0.32717348       0.39499208 </v>
   <v>       0.16652303      -0.16652313      -0.39495139 </v>
   <v>       0.16652319       0.33305967      -0.39495193 </v>
   <v>      -0.33305982      -0.16652328      -0.39495193 </v>
   <v>      -0.14765137      -0.29528999      -0.44441276 </v>
   <v>       0.29529001       0.14765144      -0.44441276 </v>
   <v>      -0.14765106       0.14765118      -0.44441230 </v>
   <v>       0.14845108      -0.14845114       0.44612156 </v>
   <v>       0.14844920       0.29691154       0.44612159 </v>
   <v>      -0.29691160      -0.14844920       0.44612160 </v>
   <v>      -0.33333531       0.33333506       0.43757339 </v>
   <v>       0.33332798      -0.33332794      -0.43806885 </v>
   <v>       0.33333014      -0.33333011       0.47404910 </v>
   <v>      -0.33333683       0.33333694      -0.47403953 </v>
   <v>      -0.00000422       0.00000422      -0.49967372 </v>
  </varray>
 </structure>
 <varray name="primitive_index" >
  <v type="int" >        1 </v>
  <v type="int" >      189 </v>
  <v type="int" >      152 </v>
  <v type="int" >      175 </v>
  <v type="int" >      146 </v>
  <v type="int" >      183 </v>
  <v type="int" >      157 </v>
  <v type="int" >       25 </v>
  <v type="int" >       60 </v>
  <v type="int" >       35 </v>
  <v type="int" >       19 </v>
  <v type="int" >       54 </v>
  <v type="int" >       41 </v>
  <v type="int" >       77 </v>
  <v type="int" >       91 </v>
  <v type="int" >       75 </v>
  <v type="int" >       89 </v>
  <v type="int" >      115 </v>
  <v type="int" >      109 </v>
  <v type="int" >      193 </v>
  <v type="int" >      219 </v>
  <v type="int" >      218 </v>
  <v type="int" >      235 </v>
  <v type="int" >      213 </v>
  <v type="int" >      212 </v>
  <v type="int" >      255 </v>
  <v type="int" >        9 </v>
  <v type="int" >      249 </v>
  <v type="int" >      127 </v>
  <v type="int" >      141 </v>
  <v type="int" >      122 </v>
  <v type="int" >       10 </v>
  <v type="int" >      143 </v>
  <v type="int" >      126 </v>
  <v type="int" >      136 </v>
  <v type="int" >       72 </v>
  <v type="int" >       65 </v>
  <v type="int" >      246 </v>
  <v type="int" >      244 </v>
  <v type="int" >       90 </v>
  <v type="int" >       92 </v>
  <v type="int" >      239 </v>
  <v type="int" >      204 </v>
  <v type="int" >      202 </v>
  <v type="int" >      209 </v>
  <v type="int" >      210 </v>
  <v type="int" >      232 </v>
  <v type="int" >       50 </v>
  <v type="int" >       27 </v>
  <v type="int" >       64 </v>
  <v type="int" >       32 </v>
  <v type="int" >       21 </v>
  <v type="int" >       58 </v>
  <v type="int" >      185 </v>
  <v type="int" >      150 </v>
  <v type="int" >      172 </v>
  <v type="int" >      166 </v>
  <v type="int" >      156 </v>
  <v type="int" >      191 </v>
  <v type="int" >      106 </v>
  <v type="int" >      112 </v>
  <v type="int" >       80 </v>
  <v type="int" >       74 </v>
  <v type="int" >        2 </v>
 </varray>
