       N       E                     dE             d eps       ncg     rms          rms(c)
DAV:   1     0.187536787240E+05    0.18754E+05   -0.47600E+05153550   0.156E+03
DAV:   2     0.189627146916E+04   -0.16857E+05   -0.14254E+05149400   0.450E+02
DAV:   3    -0.181455255102E+04   -0.37108E+04   -0.34848E+04142120   0.210E+02
DAV:   4    -0.214119783012E+04   -0.32665E+03   -0.31861E+03177070   0.695E+01
DAV:   5    -0.216232236396E+04   -0.21125E+02   -0.21021E+02219350   0.181E+01    0.133E+02
DAV:   6    -0.165170928464E+04    0.51061E+03   -0.12873E+03202060   0.520E+01    0.533E+01
DAV:   7    -0.167614506467E+04   -0.24436E+02   -0.22661E+02174200   0.229E+01    0.451E+01
DAV:   8    -0.165107962247E+04    0.25065E+02   -0.35083E+01167250   0.122E+01    0.363E+01
DAV:   9    -0.169124930134E+04   -0.40170E+02   -0.48719E+01178360   0.106E+01    0.225E+01
DAV:  10    -0.179493821876E+04   -0.10369E+03   -0.71594E+01158380   0.943E+00    0.176E+01
DAV:  11    -0.190905874867E+04   -0.11412E+03   -0.16745E+02172410   0.134E+01    0.888E+00
DAV:  12    -0.192193672670E+04   -0.12878E+02   -0.25460E+01167430   0.658E+00    0.603E+00
DAV:  13    -0.192267782744E+04   -0.74110E+00   -0.69486E+00201300   0.369E+00    0.370E+00
DAV:  14    -0.192293079214E+04   -0.25296E+00   -0.13754E+00165550   0.172E+00    0.212E+00
DAV:  15    -0.192296591976E+04   -0.35128E-01   -0.46936E-01197100   0.929E-01    0.802E-01
DAV:  16    -0.192300167700E+04   -0.35757E-01   -0.84526E-02173110   0.424E-01    0.543E-01
DAV:  17    -0.192301360555E+04   -0.11929E-01   -0.19155E-02169450   0.227E-01    0.295E-01
DAV:  18    -0.192301634885E+04   -0.27433E-02   -0.11380E-02185820   0.169E-01    0.122E-01
DAV:  19    -0.192301761383E+04   -0.12650E-02   -0.62013E-03191470   0.107E-01    0.120E-01
DAV:  20    -0.192301746423E+04    0.14961E-03   -0.74381E-04197900   0.513E-02    0.562E-02
DAV:  21    -0.192301746913E+04   -0.49050E-05   -0.49419E-04190520   0.295E-02    0.163E-02
DAV:  22    -0.192301747273E+04   -0.35984E-05   -0.55620E-05172030   0.160E-02    0.844E-03
DAV:  23    -0.192301747322E+04   -0.49404E-06   -0.26775E-05180240   0.809E-03    0.649E-03
DAV:  24    -0.192301747145E+04    0.17775E-05   -0.50733E-06210130   0.334E-03    0.383E-03
DAV:  25    -0.192301746990E+04    0.15477E-05   -0.18039E-06189080   0.169E-03    0.151E-03
DAV:  26    -0.192301746936E+04    0.53547E-06   -0.26503E-07130360   0.990E-04    0.163E-03
DAV:  27    -0.192301746922E+04    0.14025E-06   -0.20672E-07112600   0.977E-04    0.851E-04
DAV:  28    -0.192301746926E+04   -0.34124E-07   -0.13986E-07 95440   0.613E-04
   1 F= -.19230175E+04 E0= -.19230175E+04  d E =-.192302E+04  mag=     0.0000
       N       E                     dE             d eps       ncg     rms          rms(c)
DAV:   1    -0.192324299184E+04   -0.22552E+00   -0.45196E+00187250   0.290E+00    0.354E+00
DAV:   2    -0.192305513219E+04    0.18786E+00   -0.91580E-01205750   0.140E+00    0.111E+00
DAV:   3    -0.192303512223E+04    0.20010E-01   -0.12156E-01196630   0.963E-01    0.672E-01
DAV:   4    -0.192302396334E+04    0.11159E-01   -0.12956E-02188250   0.348E-01    0.180E-01
DAV:   5    -0.192302358109E+04    0.38225E-03   -0.77812E-03207440   0.121E-01    0.105E-01
DAV:   6    -0.192302343738E+04    0.14371E-03   -0.63976E-04184070   0.398E-02    0.675E-02
DAV:   7    -0.192302337375E+04    0.63629E-04   -0.32243E-04195860   0.280E-02    0.291E-02
DAV:   8    -0.192302334836E+04    0.25394E-04   -0.10504E-04201150   0.152E-02    0.115E-02
DAV:   9    -0.192302333843E+04    0.99333E-05   -0.17192E-05188150   0.631E-03    0.985E-03
DAV:  10    -0.192302333200E+04    0.64229E-05   -0.89951E-06225750   0.477E-03    0.416E-03
DAV:  11    -0.192302333141E+04    0.59142E-06   -0.18266E-06171940   0.164E-03    0.338E-03
DAV:  12    -0.192302332788E+04    0.35309E-05   -0.61217E-07169430   0.124E-03    0.127E-03
DAV:  13    -0.192302332731E+04    0.56604E-06   -0.29620E-07113820   0.852E-04    0.133E-03
DAV:  14    -0.192302332689E+04    0.42820E-06   -0.86559E-08 90240   0.532E-04    0.101E-03
DAV:  15    -0.192302332678E+04    0.10827E-06   -0.47513E-08 87430   0.429E-04    0.581E-04
DAV:  16    -0.192302332677E+04    0.32305E-08   -0.34664E-08 84790   0.338E-04
   2 F= -.19230233E+04 E0= -.19230233E+04  d E =-.585752E-02  mag=     0.0000
       N       E                     dE             d eps       ncg     rms          rms(c)
DAV:   1    -0.192307323255E+04   -0.49906E-01   -0.84905E-01186460   0.126E+00    0.153E+00
DAV:   2    -0.192303821828E+04    0.35014E-01   -0.17166E-01206180   0.608E-01    0.476E-01
DAV:   3    -0.192303430741E+04    0.39109E-02   -0.22531E-02198280   0.409E-01    0.285E-01
DAV:   4    -0.192303237985E+04    0.19276E-02   -0.24327E-03189380   0.149E-01    0.770E-02
DAV:   5    -0.192303236772E+04    0.12130E-04   -0.14011E-03207640   0.520E-02    0.415E-02
DAV:   6    -0.192303235375E+04    0.13973E-04   -0.11352E-04188850   0.164E-02    0.275E-02
DAV:   7    -0.192303235465E+04   -0.90420E-06   -0.56515E-05190150   0.116E-02    0.108E-02
DAV:   8    -0.192303236073E+04   -0.60759E-05   -0.17040E-05194010   0.588E-03    0.475E-03
DAV:   9    -0.192303236484E+04   -0.41130E-05   -0.26516E-06182670   0.260E-03    0.396E-03
DAV:  10    -0.192303236693E+04   -0.20943E-05   -0.14428E-06208380   0.197E-03    0.171E-03
DAV:  11    -0.192303236725E+04   -0.31805E-06   -0.34625E-07117510   0.753E-04    0.135E-03
DAV:  12    -0.192303236876E+04   -0.15054E-05   -0.78947E-08 90040   0.585E-04    0.645E-04
DAV:  13    -0.192303236900E+04   -0.24281E-06   -0.12152E-07 85990   0.609E-04    0.472E-04
DAV:  14    -0.192303236907E+04   -0.66735E-07   -0.62243E-08 83030   0.457E-04
   3 F= -.19230324E+04 E0= -.19230324E+04  d E =-.148998E-01  mag=     0.0000
       N       E                     dE             d eps       ncg     rms          rms(c)
DAV:   1    -0.192303241439E+04   -0.45393E-04   -0.12196E-03186310   0.476E-02    0.580E-02
DAV:   2    -0.192303236985E+04    0.44544E-04   -0.24645E-04206610   0.230E-02    0.181E-02
DAV:   3    -0.192303236386E+04    0.59879E-05   -0.32443E-05198590   0.156E-02    0.108E-02
DAV:   4    -0.192303236191E+04    0.19507E-05   -0.34833E-06190470   0.564E-03    0.292E-03
DAV:   5    -0.192303236352E+04   -0.16065E-05   -0.19987E-06207450   0.195E-03    0.159E-03
DAV:   6    -0.192303236371E+04   -0.19409E-06   -0.12082E-07 99310   0.623E-04    0.105E-03
DAV:   7    -0.192303236409E+04   -0.37634E-06   -0.11022E-07 81800   0.620E-04    0.276E-04
DAV:   8    -0.192303236429E+04   -0.20678E-06   -0.57026E-08 80400   0.460E-04    0.926E-05
DAV:   9    -0.192303236441E+04   -0.11688E-06   -0.25681E-08 78980   0.258E-04    0.160E-04
DAV:  10    -0.192303236450E+04   -0.89232E-07   -0.55700E-09 78700   0.193E-04
   4 F= -.19230324E+04 E0= -.19230324E+04  d E =-.148952E-01  mag=     0.0000
