Ca2Al24O38                              
           1
    11.446102    0.000000    0.000000
    -5.723051    9.912615    0.000000
     0.000000    0.000000   22.382418
   Al   Ca   Mg   O    Ti
  64   8  16 152  16
Direct configuration=     1
   0.00000135  0.99999865  0.00031218
   0.99999865  0.00000135  0.50031218
   0.00000135  0.49999866  0.00031219
   0.99999865  0.50000134  0.50031219
   0.50000134  0.99999865  0.00031219
   0.49999866  0.00000135  0.50031219
   0.50000134  0.49999865  0.00031219
   0.49999866  0.50000134  0.50031219
   0.99999875  0.00000125  0.23884900
   0.00000125  0.99999875  0.73884898
   0.99999885  0.50000139  0.23884899
   0.00000115  0.49999861  0.73884897
   0.49999861  0.00000115  0.23884899
   0.50000139  0.99999885  0.73884897
   0.49999868  0.50000132  0.23884898
   0.50000132  0.49999868  0.73884896
   0.41674910  0.08325087  0.10510733
   0.41674909  0.33349428  0.10510702
   0.16650593  0.08325099  0.10510701
   0.08325088  0.41674912  0.60510735
   0.08325099  0.16650593  0.60510703
   0.33349429  0.41674912  0.60510705
   0.08182446  0.41817555  0.89491983
   0.33635445  0.41817519  0.89492140
   0.08182491  0.16364575  0.89492142
   0.41817552  0.08182445  0.39491978
   0.16364574  0.08182491  0.39492137
   0.41817516  0.33635444  0.39492136
   0.41674905  0.58325091  0.10510737
   0.41674898  0.83349401  0.10510705
   0.16650596  0.58325102  0.10510705
   0.08325088  0.91674907  0.60510732
   0.08325087  0.66650571  0.60510702
   0.33349430  0.91674908  0.60510702
   0.08182446  0.91817549  0.89491985
   0.33635445  0.91817514  0.89492143
   0.08182480  0.66364555  0.89492143
   0.41817548  0.58182448  0.39491975
   0.16364577  0.58182493  0.39492134
   0.41817506  0.83635421  0.39492134
   0.91674909  0.08325088  0.10510730
   0.91674910  0.33349431  0.10510700
   0.66650570  0.08325087  0.10510700
   0.58325095  0.41674908  0.60510739
   0.58325102  0.16650598  0.60510708
   0.83349399  0.41674898  0.60510708
   0.58182452  0.41817551  0.89491979
   0.83635418  0.41817506  0.89492138
   0.58182494  0.16364579  0.89492138
   0.91817551  0.08182446  0.39491981
   0.66364554  0.08182480  0.39492139
   0.91817516  0.33635447  0.39492139
   0.91674909  0.58325087  0.10510733
   0.91674900  0.83349407  0.10510701
   0.66650573  0.58325087  0.10510702
   0.58325088  0.91674907  0.60510735
   0.58325090  0.66650574  0.60510705
   0.83349401  0.91674895  0.60510703
   0.58182445  0.91817549  0.89491983
   0.83635420  0.91817503  0.89492142
   0.58182483  0.66364558  0.89492140
   0.91817552  0.58182445  0.39491978
   0.66364557  0.58182481  0.39492136
   0.91817508  0.83635425  0.39492137
   0.33330571  0.16669431  0.25943700
   0.16669432  0.33330574  0.75943704
   0.33330573  0.66669427  0.25943699
   0.16669435  0.83330565  0.75943704
   0.83330557  0.16669433  0.25943700
   0.66669427  0.33330575  0.75943704
   0.83330564  0.66669428  0.25943700
   0.66669432  0.83330567  0.75943704
   0.16666784  0.33333229  0.02593427
   0.33333227  0.16666784  0.52593427
   0.33333440  0.16666570  0.97405480
   0.16666571  0.33333442  0.47405480
   0.16666781  0.83333219  0.02593429
   0.33333222  0.66666778  0.52593425
   0.33333435  0.66666565  0.97405483
   0.16666568  0.83333433  0.47405478
   0.66666779  0.33333223  0.02593425
   0.83333212  0.16666779  0.52593429
   0.83333425  0.16666565  0.97405478
   0.66666566  0.33333436  0.47405483
   0.66666776  0.83333215  0.02593427
   0.83333211  0.66666773  0.52593427
   0.83333425  0.66666560  0.97405480
   0.66666563  0.83333428  0.47405480
   0.00000085  0.99999915  0.15331258
   0.99999915  0.00000085  0.65331256
   0.00000064  0.99999936  0.85025938
   0.99999936  0.00000064  0.35025932
   0.00000081  0.49999909  0.15331256
   0.99999919  0.50000090  0.65331253
   0.00000067  0.49999942  0.85025941
   0.99999932  0.50000057  0.35025934
   0.50000090  0.99999919  0.15331256
   0.49999910  0.00000081  0.65331253
   0.50000058  0.99999932  0.85025941
   0.49999942  0.00000068  0.35025934
   0.50000088  0.49999911  0.15331254
   0.49999912  0.50000088  0.65331252
   0.50000060  0.49999940  0.85025942
   0.49999940  0.50000060  0.35025935
   0.16666724  0.33333271  0.93759629
   0.33333269  0.16666723  0.43759629
   0.33333487  0.16666504  0.06192676
   0.16666505  0.33333489  0.56192674
   0.16666726  0.83333274  0.93759626
   0.33333271  0.66666729  0.43759634
   0.33333489  0.66666511  0.06192670
   0.16666507  0.83333493  0.56192679
   0.66666730  0.33333273  0.93759634
   0.83333267  0.16666724  0.43759626
   0.83333485  0.16666505  0.06192680
   0.66666512  0.33333491  0.56192668
   0.66666734  0.83333275  0.93759629
   0.83333272  0.66666731  0.43759629
   0.83333491  0.66666513  0.06192676
   0.66666517  0.83333494  0.56192674
   0.08933674  0.41066320  0.24951354
   0.08935244  0.17867220  0.24951424
   0.32132756  0.41064742  0.24951425
   0.41066319  0.08933673  0.74951348
   0.41064741  0.32132755  0.74951418
   0.17867219  0.08935243  0.74951417
   0.08933665  0.91066333  0.24951353
   0.08935244  0.67867229  0.24951424
   0.32132768  0.91064753  0.24951424
   0.41066315  0.58933681  0.74951348
   0.41064743  0.82132763  0.74951418
   0.17867239  0.58935254  0.74951418
   0.58933684  0.41066316  0.24951355
   0.58935254  0.17867240  0.24951425
   0.82132764  0.41064743  0.24951425
   0.91066334  0.08933666  0.74951347
   0.91064754  0.32132768  0.74951418
   0.67867232  0.08935246  0.74951418
   0.58933676  0.91066327  0.24951354
   0.58935253  0.67867242  0.24951425
   0.82132781  0.91064757  0.24951424
   0.91066328  0.58933677  0.74951348
   0.91064758  0.82132783  0.74951417
   0.67867244  0.58935255  0.74951418
   0.07385425  0.42614564  0.05561066
   0.07385441  0.14770478  0.05561042
   0.35229513  0.42614550  0.05561039
   0.42614562  0.07385426  0.55561065
   0.42614550  0.35229512  0.55561038
   0.14770478  0.07385441  0.55561041
   0.42576437  0.07423554  0.94606421
   0.14847411  0.07423504  0.94606413
   0.42576488  0.35152579  0.94606416
   0.07423553  0.42576439  0.44606421
   0.35152580  0.42576488  0.44606416
   0.07423504  0.14847410  0.44606413
   0.07385428  0.92614569  0.05561067
   0.07385441  0.64770480  0.05561040
   0.35229513  0.92614556  0.05561040
   0.42614569  0.57385431  0.55561065
   0.42614554  0.85229518  0.55561040
   0.14770482  0.57385446  0.55561040
   0.42576442  0.57423558  0.94606420
   0.14847415  0.57423507  0.94606414
   0.42576492  0.85152585  0.94606414
   0.07423555  0.92576442  0.44606420
   0.35152580  0.92576492  0.44606416
   0.07423505  0.64847413  0.44606416
   0.57385429  0.42614568  0.05561066
   0.57385446  0.14770482  0.05561042
   0.85229521  0.42614554  0.05561042
   0.92614576  0.07385431  0.55561066
   0.92614561  0.35229515  0.55561038
   0.64770482  0.07385444  0.55561038
   0.92576449  0.07423558  0.94606420
   0.64847416  0.07423507  0.94606416
   0.92576497  0.35152581  0.94606416
   0.57423556  0.42576441  0.44606420
   0.85152588  0.42576492  0.44606414
   0.57423508  0.14847414  0.44606414
   0.57385433  0.92614574  0.05561066
   0.57385447  0.64770482  0.05561039
   0.85229520  0.92614558  0.05561042
   0.92614577  0.57385436  0.55561065
   0.92614563  0.85229522  0.55561041
   0.64770485  0.57385450  0.55561038
   0.92576449  0.57423561  0.94606421
   0.64847418  0.57423511  0.94606416
   0.92576500  0.85152589  0.94606413
   0.57423558  0.92576446  0.44606421
   0.85152588  0.92576495  0.44606413
   0.57423509  0.64847415  0.44606416
   0.25298780  0.24701209  0.15012960
   0.25298726  0.00596982  0.15013012
   0.49403030  0.24701273  0.15013015
   0.24701209  0.25298780  0.65012956
   0.24701273  0.49403028  0.65013012
   0.00596982  0.25298726  0.65013009
   0.24676626  0.25323365  0.84895199
   0.00647399  0.25323508  0.84894925
   0.24676491  0.49352608  0.84894922
   0.25323365  0.24676626  0.34895195
   0.49352611  0.24676491  0.34894918
   0.25323508  0.00647399  0.34894921
   0.25298770  0.74701227  0.15012965
   0.25298710  0.50596946  0.15013020
   0.49403051  0.74701290  0.15013020
   0.24701211  0.75298791  0.65012954
   0.24701257  0.99402995  0.65013006
   0.00597001  0.75298740  0.65013006
   0.24676629  0.75323373  0.84895201
   0.00647414  0.75323519  0.84894927
   0.24676477  0.99352582  0.84894927
   0.25323357  0.74676640  0.34895191
   0.49352627  0.74676504  0.34894915
   0.25323495  0.50647371  0.34894915
   0.75298789  0.24701208  0.15012957
   0.75298736  0.00596998  0.15013009
   0.99403003  0.24701259  0.15013009
   0.74701234  0.25298772  0.65012962
   0.74701294  0.49403053  0.65013016
   0.50596948  0.25298710  0.65013016
   0.74676647  0.25323360  0.84895196
   0.50647373  0.25323495  0.84894919
   0.74676509  0.49352629  0.84894919
   0.75323371  0.24676626  0.34895197
   0.99352590  0.24676480  0.34894923
   0.75323515  0.00647412  0.34894923
   0.75298784  0.74701220  0.15012960
   0.75298722  0.50596972  0.15013015
   0.99403015  0.74701274  0.15013012
   0.74701226  0.75298790  0.65012956
   0.74701275  0.99403012  0.65013009
   0.50596974  0.75298726  0.65013012
   0.74676642  0.75323373  0.84895199
   0.50647393  0.75323508  0.84894922
   0.74676493  0.99352595  0.84894925
   0.75323367  0.74676635  0.34895195
   0.99352598  0.74676491  0.34894921
   0.75323504  0.50647391  0.34894918
   0.33333686  0.16666388  0.81226712
   0.16666389  0.33333688  0.31226712
   0.16666826  0.33333266  0.18632051
   0.33333264  0.16666825  0.68632049
   0.33333655  0.66666345  0.81226710
   0.16666370  0.83333631  0.31226713
   0.16666802  0.83333198  0.18632049
   0.33333227  0.66666773  0.68632052
   0.83333623  0.16666367  0.81226713
   0.66666345  0.33333657  0.31226710
   0.66666774  0.33333228  0.18632054
   0.83333191  0.16666800  0.68632047
   0.83333607  0.66666314  0.81226712
   0.66666317  0.83333610  0.31226712
   0.66666740  0.83333173  0.18632051
   0.83333170  0.66666736  0.68632049
Ca2Al24O38                              
           1
    11.466812    0.000000    0.000000
    -5.733406    9.930550    0.000000
     0.000000    0.000000   22.422915
   Al   Ca   Mg   O    Ti
  64   8  16 152  16
Direct configuration=     2
   0.00000135  0.99999865  0.00031218
   0.99999865  0.00000135  0.50031218
   0.00000135  0.49999866  0.00031219
   0.99999865  0.50000134  0.50031219
   0.50000134  0.99999865  0.00031219
   0.49999866  0.00000135  0.50031219
   0.50000134  0.49999865  0.00031219
   0.49999866  0.50000134  0.50031219
   0.99999875  0.00000125  0.23884900
   0.00000125  0.99999875  0.73884898
   0.99999885  0.50000139  0.23884899
   0.00000115  0.49999861  0.73884897
   0.49999861  0.00000115  0.23884899
   0.50000139  0.99999885  0.73884897
   0.49999868  0.50000132  0.23884898
   0.50000132  0.49999868  0.73884896
   0.41674910  0.08325087  0.10510733
   0.41674909  0.33349428  0.10510702
   0.16650593  0.08325099  0.10510701
   0.08325088  0.41674912  0.60510735
   0.08325099  0.16650593  0.60510703
   0.33349429  0.41674912  0.60510705
   0.08182446  0.41817555  0.89491983
   0.33635445  0.41817519  0.89492140
   0.08182491  0.16364575  0.89492142
   0.41817552  0.08182445  0.39491978
   0.16364574  0.08182491  0.39492137
   0.41817516  0.33635444  0.39492136
   0.41674905  0.58325091  0.10510737
   0.41674898  0.83349401  0.10510705
   0.16650596  0.58325102  0.10510705
   0.08325088  0.91674907  0.60510732
   0.08325087  0.66650571  0.60510702
   0.33349430  0.91674908  0.60510702
   0.08182446  0.91817549  0.89491985
   0.33635445  0.91817514  0.89492143
   0.08182480  0.66364555  0.89492143
   0.41817548  0.58182448  0.39491975
   0.16364577  0.58182493  0.39492134
   0.41817506  0.83635421  0.39492134
   0.91674909  0.08325088  0.10510730
   0.91674910  0.33349431  0.10510700
   0.66650570  0.08325087  0.10510700
   0.58325095  0.41674908  0.60510739
   0.58325102  0.16650598  0.60510708
   0.83349399  0.41674898  0.60510708
   0.58182452  0.41817551  0.89491979
   0.83635418  0.41817506  0.89492138
   0.58182494  0.16364579  0.89492138
   0.91817551  0.08182446  0.39491981
   0.66364554  0.08182480  0.39492139
   0.91817516  0.33635447  0.39492139
   0.91674909  0.58325087  0.10510733
   0.91674900  0.83349407  0.10510701
   0.66650573  0.58325087  0.10510702
   0.58325088  0.91674907  0.60510735
   0.58325090  0.66650574  0.60510705
   0.83349401  0.91674895  0.60510703
   0.58182445  0.91817549  0.89491983
   0.83635420  0.91817503  0.89492142
   0.58182483  0.66364558  0.89492140
   0.91817552  0.58182445  0.39491978
   0.66364557  0.58182481  0.39492136
   0.91817508  0.83635425  0.39492137
   0.33330571  0.16669431  0.25943700
   0.16669432  0.33330574  0.75943704
   0.33330573  0.66669427  0.25943699
   0.16669435  0.83330565  0.75943704
   0.83330557  0.16669433  0.25943700
   0.66669427  0.33330575  0.75943704
   0.83330564  0.66669428  0.25943700
   0.66669432  0.83330567  0.75943704
   0.16666784  0.33333229  0.02593427
   0.33333227  0.16666784  0.52593427
   0.33333440  0.16666570  0.97405480
   0.16666571  0.33333442  0.47405480
   0.16666781  0.83333219  0.02593429
   0.33333222  0.66666778  0.52593425
   0.33333435  0.66666565  0.97405483
   0.16666568  0.83333433  0.47405478
   0.66666779  0.33333223  0.02593425
   0.83333212  0.16666779  0.52593429
   0.83333425  0.16666565  0.97405478
   0.66666566  0.33333436  0.47405483
   0.66666776  0.83333215  0.02593427
   0.83333211  0.66666773  0.52593427
   0.83333425  0.66666560  0.97405480
   0.66666563  0.83333428  0.47405480
   0.00000085  0.99999915  0.15331258
   0.99999915  0.00000085  0.65331256
   0.00000064  0.99999936  0.85025938
   0.99999936  0.00000064  0.35025932
   0.00000081  0.49999909  0.15331256
   0.99999919  0.50000090  0.65331253
   0.00000067  0.49999942  0.85025941
   0.99999932  0.50000057  0.35025934
   0.50000090  0.99999919  0.15331256
   0.49999910  0.00000081  0.65331253
   0.50000058  0.99999932  0.85025941
   0.49999942  0.00000068  0.35025934
   0.50000088  0.49999911  0.15331254
   0.49999912  0.50000088  0.65331252
   0.50000060  0.49999940  0.85025942
   0.49999940  0.50000060  0.35025935
   0.16666724  0.33333271  0.93759629
   0.33333269  0.16666723  0.43759629
   0.33333487  0.16666504  0.06192676
   0.16666505  0.33333489  0.56192674
   0.16666726  0.83333274  0.93759626
   0.33333271  0.66666729  0.43759634
   0.33333489  0.66666511  0.06192670
   0.16666507  0.83333493  0.56192679
   0.66666730  0.33333273  0.93759634
   0.83333267  0.16666724  0.43759626
   0.83333485  0.16666505  0.06192680
   0.66666512  0.33333491  0.56192668
   0.66666734  0.83333275  0.93759629
   0.83333272  0.66666731  0.43759629
   0.83333491  0.66666513  0.06192676
   0.66666517  0.83333494  0.56192674
   0.08933674  0.41066320  0.24951354
   0.08935244  0.17867220  0.24951424
   0.32132756  0.41064742  0.24951425
   0.41066319  0.08933673  0.74951348
   0.41064741  0.32132755  0.74951418
   0.17867219  0.08935243  0.74951417
   0.08933665  0.91066333  0.24951353
   0.08935244  0.67867229  0.24951424
   0.32132768  0.91064753  0.24951424
   0.41066315  0.58933681  0.74951348
   0.41064743  0.82132763  0.74951418
   0.17867239  0.58935254  0.74951418
   0.58933684  0.41066316  0.24951355
   0.58935254  0.17867240  0.24951425
   0.82132764  0.41064743  0.24951425
   0.91066334  0.08933666  0.74951347
   0.91064754  0.32132768  0.74951418
   0.67867232  0.08935246  0.74951418
   0.58933676  0.91066327  0.24951354
   0.58935253  0.67867242  0.24951425
   0.82132781  0.91064757  0.24951424
   0.91066328  0.58933677  0.74951348
   0.91064758  0.82132783  0.74951417
   0.67867244  0.58935255  0.74951418
   0.07385425  0.42614564  0.05561066
   0.07385441  0.14770478  0.05561042
   0.35229513  0.42614550  0.05561039
   0.42614562  0.07385426  0.55561065
   0.42614550  0.35229512  0.55561038
   0.14770478  0.07385441  0.55561041
   0.42576437  0.07423554  0.94606421
   0.14847411  0.07423504  0.94606413
   0.42576488  0.35152579  0.94606416
   0.07423553  0.42576439  0.44606421
   0.35152580  0.42576488  0.44606416
   0.07423504  0.14847410  0.44606413
   0.07385428  0.92614569  0.05561067
   0.07385441  0.64770480  0.05561040
   0.35229513  0.92614556  0.05561040
   0.42614569  0.57385431  0.55561065
   0.42614554  0.85229518  0.55561040
   0.14770482  0.57385446  0.55561040
   0.42576442  0.57423558  0.94606420
   0.14847415  0.57423507  0.94606414
   0.42576492  0.85152585  0.94606414
   0.07423555  0.92576442  0.44606420
   0.35152580  0.92576492  0.44606416
   0.07423505  0.64847413  0.44606416
   0.57385429  0.42614568  0.05561066
   0.57385446  0.14770482  0.05561042
   0.85229521  0.42614554  0.05561042
   0.92614576  0.07385431  0.55561066
   0.92614561  0.35229515  0.55561038
   0.64770482  0.07385444  0.55561038
   0.92576449  0.07423558  0.94606420
   0.64847416  0.07423507  0.94606416
   0.92576497  0.35152581  0.94606416
   0.57423556  0.42576441  0.44606420
   0.85152588  0.42576492  0.44606414
   0.57423508  0.14847414  0.44606414
   0.57385433  0.92614574  0.05561066
   0.57385447  0.64770482  0.05561039
   0.85229520  0.92614558  0.05561042
   0.92614577  0.57385436  0.55561065
   0.92614563  0.85229522  0.55561041
   0.64770485  0.57385450  0.55561038
   0.92576449  0.57423561  0.94606421
   0.64847418  0.57423511  0.94606416
   0.92576500  0.85152589  0.94606413
   0.57423558  0.92576446  0.44606421
   0.85152588  0.92576495  0.44606413
   0.57423509  0.64847415  0.44606416
   0.25298780  0.24701209  0.15012960
   0.25298726  0.00596982  0.15013012
   0.49403030  0.24701273  0.15013015
   0.24701209  0.25298780  0.65012956
   0.24701273  0.49403028  0.65013012
   0.00596982  0.25298726  0.65013009
   0.24676626  0.25323365  0.84895199
   0.00647399  0.25323508  0.84894925
   0.24676491  0.49352608  0.84894922
   0.25323365  0.24676626  0.34895195
   0.49352611  0.24676491  0.34894918
   0.25323508  0.00647399  0.34894921
   0.25298770  0.74701227  0.15012965
   0.25298710  0.50596946  0.15013020
   0.49403051  0.74701290  0.15013020
   0.24701211  0.75298791  0.65012954
   0.24701257  0.99402995  0.65013006
   0.00597001  0.75298740  0.65013006
   0.24676629  0.75323373  0.84895201
   0.00647414  0.75323519  0.84894927
   0.24676477  0.99352582  0.84894927
   0.25323357  0.74676640  0.34895191
   0.49352627  0.74676504  0.34894915
   0.25323495  0.50647371  0.34894915
   0.75298789  0.24701208  0.15012957
   0.75298736  0.00596998  0.15013009
   0.99403003  0.24701259  0.15013009
   0.74701234  0.25298772  0.65012962
   0.74701294  0.49403053  0.65013016
   0.50596948  0.25298710  0.65013016
   0.74676647  0.25323360  0.84895196
   0.50647373  0.25323495  0.84894919
   0.74676509  0.49352629  0.84894919
   0.75323371  0.24676626  0.34895197
   0.99352590  0.24676480  0.34894923
   0.75323515  0.00647412  0.34894923
   0.75298784  0.74701220  0.15012960
   0.75298722  0.50596972  0.15013015
   0.99403015  0.74701274  0.15013012
   0.74701226  0.75298790  0.65012956
   0.74701275  0.99403012  0.65013009
   0.50596974  0.75298726  0.65013012
   0.74676642  0.75323373  0.84895199
   0.50647393  0.75323508  0.84894922
   0.74676493  0.99352595  0.84894925
   0.75323367  0.74676635  0.34895195
   0.99352598  0.74676491  0.34894921
   0.75323504  0.50647391  0.34894918
   0.33333686  0.16666388  0.81226712
   0.16666389  0.33333688  0.31226712
   0.16666826  0.33333266  0.18632051
   0.33333264  0.16666825  0.68632049
   0.33333655  0.66666345  0.81226710
   0.16666370  0.83333631  0.31226713
   0.16666802  0.83333198  0.18632049
   0.33333227  0.66666773  0.68632052
   0.83333623  0.16666367  0.81226713
   0.66666345  0.33333657  0.31226710
   0.66666774  0.33333228  0.18632054
   0.83333191  0.16666800  0.68632047
   0.83333607  0.66666314  0.81226712
   0.66666317  0.83333610  0.31226712
   0.66666740  0.83333173  0.18632051
   0.83333170  0.66666736  0.68632049
Ca2Al24O38                              
           1
    11.457840    0.000000    0.000000
    -5.728920    9.922781    0.000000
     0.000000    0.000000   22.405371
   Al   Ca   Mg   O    Ti
  64   8  16 152  16
Direct configuration=     3
   0.00000135  0.99999865  0.00031218
   0.99999865  0.00000135  0.50031218
   0.00000135  0.49999866  0.00031219
   0.99999865  0.50000134  0.50031219
   0.50000134  0.99999865  0.00031219
   0.49999866  0.00000135  0.50031219
   0.50000134  0.49999865  0.00031219
   0.49999866  0.50000134  0.50031219
   0.99999875  0.00000125  0.23884900
   0.00000125  0.99999875  0.73884898
   0.99999885  0.50000139  0.23884899
   0.00000115  0.49999861  0.73884897
   0.49999861  0.00000115  0.23884899
   0.50000139  0.99999885  0.73884897
   0.49999868  0.50000132  0.23884898
   0.50000132  0.49999868  0.73884896
   0.41674910  0.08325087  0.10510733
   0.41674909  0.33349428  0.10510702
   0.16650593  0.08325099  0.10510701
   0.08325088  0.41674912  0.60510735
   0.08325099  0.16650593  0.60510703
   0.33349429  0.41674912  0.60510705
   0.08182446  0.41817555  0.89491983
   0.33635445  0.41817519  0.89492140
   0.08182491  0.16364575  0.89492142
   0.41817552  0.08182445  0.39491978
   0.16364574  0.08182491  0.39492137
   0.41817516  0.33635444  0.39492136
   0.41674905  0.58325091  0.10510737
   0.41674898  0.83349401  0.10510705
   0.16650596  0.58325102  0.10510705
   0.08325088  0.91674907  0.60510732
   0.08325087  0.66650571  0.60510702
   0.33349430  0.91674908  0.60510702
   0.08182446  0.91817549  0.89491985
   0.33635445  0.91817514  0.89492143
   0.08182480  0.66364555  0.89492143
   0.41817548  0.58182448  0.39491975
   0.16364577  0.58182493  0.39492134
   0.41817506  0.83635421  0.39492134
   0.91674909  0.08325088  0.10510730
   0.91674910  0.33349431  0.10510700
   0.66650570  0.08325087  0.10510700
   0.58325095  0.41674908  0.60510739
   0.58325102  0.16650598  0.60510708
   0.83349399  0.41674898  0.60510708
   0.58182452  0.41817551  0.89491979
   0.83635418  0.41817506  0.89492138
   0.58182494  0.16364579  0.89492138
   0.91817551  0.08182446  0.39491981
   0.66364554  0.08182480  0.39492139
   0.91817516  0.33635447  0.39492139
   0.91674909  0.58325087  0.10510733
   0.91674900  0.83349407  0.10510701
   0.66650573  0.58325087  0.10510702
   0.58325088  0.91674907  0.60510735
   0.58325090  0.66650574  0.60510705
   0.83349401  0.91674895  0.60510703
   0.58182445  0.91817549  0.89491983
   0.83635420  0.91817503  0.89492142
   0.58182483  0.66364558  0.89492140
   0.91817552  0.58182445  0.39491978
   0.66364557  0.58182481  0.39492136
   0.91817508  0.83635425  0.39492137
   0.33330571  0.16669431  0.25943700
   0.16669432  0.33330574  0.75943704
   0.33330573  0.66669427  0.25943699
   0.16669435  0.83330565  0.75943704
   0.83330557  0.16669433  0.25943700
   0.66669427  0.33330575  0.75943704
   0.83330564  0.66669428  0.25943700
   0.66669432  0.83330567  0.75943704
   0.16666784  0.33333229  0.02593427
   0.33333227  0.16666784  0.52593427
   0.33333440  0.16666570  0.97405480
   0.16666571  0.33333442  0.47405480
   0.16666781  0.83333219  0.02593429
   0.33333222  0.66666778  0.52593425
   0.33333435  0.66666565  0.97405483
   0.16666568  0.83333433  0.47405478
   0.66666779  0.33333223  0.02593425
   0.83333212  0.16666779  0.52593429
   0.83333425  0.16666565  0.97405478
   0.66666566  0.33333436  0.47405483
   0.66666776  0.83333215  0.02593427
   0.83333211  0.66666773  0.52593427
   0.83333425  0.66666560  0.97405480
   0.66666563  0.83333428  0.47405480
   0.00000085  0.99999915  0.15331258
   0.99999915  0.00000085  0.65331256
   0.00000064  0.99999936  0.85025938
   0.99999936  0.00000064  0.35025932
   0.00000081  0.49999909  0.15331256
   0.99999919  0.50000090  0.65331253
   0.00000067  0.49999942  0.85025941
   0.99999932  0.50000057  0.35025934
   0.50000090  0.99999919  0.15331256
   0.49999910  0.00000081  0.65331253
   0.50000058  0.99999932  0.85025941
   0.49999942  0.00000068  0.35025934
   0.50000088  0.49999911  0.15331254
   0.49999912  0.50000088  0.65331252
   0.50000060  0.49999940  0.85025942
   0.49999940  0.50000060  0.35025935
   0.16666724  0.33333271  0.93759629
   0.33333269  0.16666723  0.43759629
   0.33333487  0.16666504  0.06192676
   0.16666505  0.33333489  0.56192674
   0.16666726  0.83333274  0.93759626
   0.33333271  0.66666729  0.43759634
   0.33333489  0.66666511  0.06192670
   0.16666507  0.83333493  0.56192679
   0.66666730  0.33333273  0.93759634
   0.83333267  0.16666724  0.43759626
   0.83333485  0.16666505  0.06192680
   0.66666512  0.33333491  0.56192668
   0.66666734  0.83333275  0.93759629
   0.83333272  0.66666731  0.43759629
   0.83333491  0.66666513  0.06192676
   0.66666517  0.83333494  0.56192674
   0.08933674  0.41066320  0.24951354
   0.08935244  0.17867220  0.24951424
   0.32132756  0.41064742  0.24951425
   0.41066319  0.08933673  0.74951348
   0.41064741  0.32132755  0.74951418
   0.17867219  0.08935243  0.74951417
   0.08933665  0.91066333  0.24951353
   0.08935244  0.67867229  0.24951424
   0.32132768  0.91064753  0.24951424
   0.41066315  0.58933681  0.74951348
   0.41064743  0.82132763  0.74951418
   0.17867239  0.58935254  0.74951418
   0.58933684  0.41066316  0.24951355
   0.58935254  0.17867240  0.24951425
   0.82132764  0.41064743  0.24951425
   0.91066334  0.08933666  0.74951347
   0.91064754  0.32132768  0.74951418
   0.67867232  0.08935246  0.74951418
   0.58933676  0.91066327  0.24951354
   0.58935253  0.67867242  0.24951425
   0.82132781  0.91064757  0.24951424
   0.91066328  0.58933677  0.74951348
   0.91064758  0.82132783  0.74951417
   0.67867244  0.58935255  0.74951418
   0.07385425  0.42614564  0.05561066
   0.07385441  0.14770478  0.05561042
   0.35229513  0.42614550  0.05561039
   0.42614562  0.07385426  0.55561065
   0.42614550  0.35229512  0.55561038
   0.14770478  0.07385441  0.55561041
   0.42576437  0.07423554  0.94606421
   0.14847411  0.07423504  0.94606413
   0.42576488  0.35152579  0.94606416
   0.07423553  0.42576439  0.44606421
   0.35152580  0.42576488  0.44606416
   0.07423504  0.14847410  0.44606413
   0.07385428  0.92614569  0.05561067
   0.07385441  0.64770480  0.05561040
   0.35229513  0.92614556  0.05561040
   0.42614569  0.57385431  0.55561065
   0.42614554  0.85229518  0.55561040
   0.14770482  0.57385446  0.55561040
   0.42576442  0.57423558  0.94606420
   0.14847415  0.57423507  0.94606414
   0.42576492  0.85152585  0.94606414
   0.07423555  0.92576442  0.44606420
   0.35152580  0.92576492  0.44606416
   0.07423505  0.64847413  0.44606416
   0.57385429  0.42614568  0.05561066
   0.57385446  0.14770482  0.05561042
   0.85229521  0.42614554  0.05561042
   0.92614576  0.07385431  0.55561066
   0.92614561  0.35229515  0.55561038
   0.64770482  0.07385444  0.55561038
   0.92576449  0.07423558  0.94606420
   0.64847416  0.07423507  0.94606416
   0.92576497  0.35152581  0.94606416
   0.57423556  0.42576441  0.44606420
   0.85152588  0.42576492  0.44606414
   0.57423508  0.14847414  0.44606414
   0.57385433  0.92614574  0.05561066
   0.57385447  0.64770482  0.05561039
   0.85229520  0.92614558  0.05561042
   0.92614577  0.57385436  0.55561065
   0.92614563  0.85229522  0.55561041
   0.64770485  0.57385450  0.55561038
   0.92576449  0.57423561  0.94606421
   0.64847418  0.57423511  0.94606416
   0.92576500  0.85152589  0.94606413
   0.57423558  0.92576446  0.44606421
   0.85152588  0.92576495  0.44606413
   0.57423509  0.64847415  0.44606416
   0.25298780  0.24701209  0.15012960
   0.25298726  0.00596982  0.15013012
   0.49403030  0.24701273  0.15013015
   0.24701209  0.25298780  0.65012956
   0.24701273  0.49403028  0.65013012
   0.00596982  0.25298726  0.65013009
   0.24676626  0.25323365  0.84895199
   0.00647399  0.25323508  0.84894925
   0.24676491  0.49352608  0.84894922
   0.25323365  0.24676626  0.34895195
   0.49352611  0.24676491  0.34894918
   0.25323508  0.00647399  0.34894921
   0.25298770  0.74701227  0.15012965
   0.25298710  0.50596946  0.15013020
   0.49403051  0.74701290  0.15013020
   0.24701211  0.75298791  0.65012954
   0.24701257  0.99402995  0.65013006
   0.00597001  0.75298740  0.65013006
   0.24676629  0.75323373  0.84895201
   0.00647414  0.75323519  0.84894927
   0.24676477  0.99352582  0.84894927
   0.25323357  0.74676640  0.34895191
   0.49352627  0.74676504  0.34894915
   0.25323495  0.50647371  0.34894915
   0.75298789  0.24701208  0.15012957
   0.75298736  0.00596998  0.15013009
   0.99403003  0.24701259  0.15013009
   0.74701234  0.25298772  0.65012962
   0.74701294  0.49403053  0.65013016
   0.50596948  0.25298710  0.65013016
   0.74676647  0.25323360  0.84895196
   0.50647373  0.25323495  0.84894919
   0.74676509  0.49352629  0.84894919
   0.75323371  0.24676626  0.34895197
   0.99352590  0.24676480  0.34894923
   0.75323515  0.00647412  0.34894923
   0.75298784  0.74701220  0.15012960
   0.75298722  0.50596972  0.15013015
   0.99403015  0.74701274  0.15013012
   0.74701226  0.75298790  0.65012956
   0.74701275  0.99403012  0.65013009
   0.50596974  0.75298726  0.65013012
   0.74676642  0.75323373  0.84895199
   0.50647393  0.75323508  0.84894922
   0.74676493  0.99352595  0.84894925
   0.75323367  0.74676635  0.34895195
   0.99352598  0.74676491  0.34894921
   0.75323504  0.50647391  0.34894918
   0.33333686  0.16666388  0.81226712
   0.16666389  0.33333688  0.31226712
   0.16666826  0.33333266  0.18632051
   0.33333264  0.16666825  0.68632049
   0.33333655  0.66666345  0.81226710
   0.16666370  0.83333631  0.31226713
   0.16666802  0.83333198  0.18632049
   0.33333227  0.66666773  0.68632052
   0.83333623  0.16666367  0.81226713
   0.66666345  0.33333657  0.31226710
   0.66666774  0.33333228  0.18632054
   0.83333191  0.16666800  0.68632047
   0.83333607  0.66666314  0.81226712
   0.66666317  0.83333610  0.31226712
   0.66666740  0.83333173  0.18632051
   0.83333170  0.66666736  0.68632049
Ca2Al24O38                              
           1