Automatically generated mesh
      14
Reciprocal lattice
    0.00000000000000    0.00000000000000    0.00000000000000             1
    0.25000000000000    0.00000000000000    0.00000000000000             4
    0.50000000000000    0.00000000000000    0.00000000000000             2
    0.25000000000000    0.25000000000000    0.00000000000000             2
    0.50000000000000    0.25000000000000    0.00000000000000             4
   -0.25000000000000    0.25000000000000    0.00000000000000             2
    0.50000000000000    0.50000000000000    0.00000000000000             1
    0.00000000000000    0.00000000000000    0.50000000000000             1
    0.25000000000000    0.00000000000000    0.50000000000000             4
    0.50000000000000    0.00000000000000    0.50000000000000             2
    0.25000000000000    0.25000000000000    0.50000000000000             2
    0.50000000000000    0.25000000000000    0.50000000000000             4
   -0.25000000000000    0.25000000000000    0.50000000000000             2
    0.50000000000000    0.50000000000000    0.50000000000000             1
Tetrahedra
        48    0.00520833333333
         4         2         2         4         9
         4         1         2         2         9
         4         1         2         8         9
         4         2         4         9        11
         4         2         9         9        11
         4         2         8         9         9
         4         3         4         5        11
         4         2         3         4        11
         4         2         3         9        11
         4         3         5        11        12
         4         3        10        11        12
         4         3         9        10        11
         4         2         5         6        12
         4         2         3         5        12
         4         2         3        10        12
         4         2         6        12        13
         4         2         9        12        13
         4         2         9        10        12
         4         1         2         6        13
         4         1         2         9        13
         4         1         8         9        13
         4         3         4         5        10
         4         2         3         4        10
         4         2         4         9        10
         4         4         5        10        12
         4         4        10        11        12
         4         4         9        10        11
         4         5         5         7        12
         4         4         5         5        12
         4         4         5        11        12
         4         5         7        12        14
         4         5        12        12        14
         4         5        11        12        12
         4         5         6         7        14
         4         5         6        12        14
         4         6        12        13        14
         4         2         5         6         9
         4         2         3         5         9
         4         3         5         9        10
         4         5         6         9        13
         4         5         9        12        13
         4         5         9        10        12
         4         5         6         7        13
         4         5         7        12        13
         4         7        12        13        14
         4         1         2         6         8
         4         2         6         8         9
         4         6         8         9        13
