 vasp.5.4.4.18Apr17-6-g9f103f2a35 (build Sep 23 2020 14:43:34) complex          
  
 executed on             LinuxIFC date 2022.03.02  17:13:55
 running on   90 total cores
 distrk:  each k-point on   90 cores,    1 groups
 distr:  one band on NCORES_PER_BAND=   9 cores,   10 groups


--------------------------------------------------------------------------------------------------------


 INCAR:
 POTCAR:   PAW_PBE Al 04Jan2001                   
 POTCAR:   PAW_PBE Ca_pv 06Sep2000                
 POTCAR:   PAW_PBE Mg 05Jan2001                   
 POTCAR:   PAW_PBE O 08Apr2002                    
 POTCAR:   PAW_PBE Ti 08Apr2002                   
 POTCAR:   PAW_PBE Al 04Jan2001                   
   VRHFIN =Al: s2p1                                                             
   LEXCH  = PE                                                                  
   EATOM  =    53.5387 eV,    3.9350 Ry                                         
                                                                                
   TITEL  = PAW_PBE Al 04Jan2001                                                
   LULTRA =        F    use ultrasoft PP ?                                      
   IUNSCR =        1    unscreen: 0-lin 1-nonlin 2-no                           
   RPACOR =    1.500    partial core radius                                     
   POMASS =   26.982; ZVAL   =    3.000    mass and valenz                      
   RCORE  =    1.900    outmost cutoff radius                                   
   RWIGS  =    2.650; RWIGS  =    1.402    wigner-seitz radius (au A)           
   ENMAX  =  240.300; ENMIN  =  180.225 eV                                      
   ICORE  =        2    local potential                                         
   LCOR   =        T    correct aug charges                                     
   LPAW   =        T    paw PP                                                  
   EAUG   =  291.052                                                            
   DEXC   =    -.041                                                            
   RMAX   =    2.974    core radius for proj-oper                               
   RAUG   =    1.300    factor for augmentation sphere                          
   RDEP   =    1.966    radius for radial grids                                 
   QCUT   =   -4.203; QGAM   =    8.405    optimization parameters              
                                                                                
   Description                                                                  
     l     E      TYP  RCUT    TYP  RCUT                                        
     0   .000     23  1.900                                                     
     0   .000     23  1.900                                                     
     1   .000     23  1.900                                                     
     1  1.000     23  1.900                                                     
     2   .000      7  1.900                                                     
  local pseudopotential read in
  partial core-charges read in
  atomic valenz-charges read in
  non local Contribution for L=           0  read in
    real space projection operators read in
  non local Contribution for L=           0  read in
    real space projection operators read in
  non local Contribution for L=           1  read in
    real space projection operators read in
  non local Contribution for L=           1  read in
    real space projection operators read in
    PAW grid and wavefunctions read in
 
   number of l-projection  operators is LMAX  =           4
   number of lm-projection operators is LMMAX =           8
 
 POTCAR:   PAW_PBE Ca_pv 06Sep2000                
   VRHFIN =Ca: p6s2d0.01                                                        
   LEXCH  = PE                                                                  
   EATOM  =   612.5326 eV,   45.0199 Ry                                         
                                                                                
   TITEL  = PAW_PBE Ca_pv 06Sep2000                                             
   LULTRA =        F    use ultrasoft PP ?                                      
   IUNSCR =        1    unscreen: 0-lin 1-nonlin 2-no                           
   RPACOR =    2.300    partial core radius                                     
   POMASS =   40.078; ZVAL   =    8.000    mass and valenz                      
   RCORE  =    3.000    outmost cutoff radius                                   
   RWIGS  =    3.300; RWIGS  =    1.746    wigner-seitz radius (au A)           
   ENMAX  =  119.554; ENMIN  =   89.665 eV                                      
   RCLOC  =    1.709    cutoff for local pot                                    
   LCOR   =        T    correct aug charges                                     
   LPAW   =        T    paw PP                                                  
   EAUG   =  325.799                                                            
   DEXC   =    -.003                                                            
   RMAX   =    4.217    core radius for proj-oper                               
   RAUG   =    1.300    factor for augmentation sphere                          
   RDEP   =    3.090    radius for radial grids                                 
   QCUT   =   -2.964; QGAM   =    5.929    optimization parameters              
                                                                                
   Description                                                                  
     l     E      TYP  RCUT    TYP  RCUT                                        
     1   .000     23  3.000                                                     
     1   .100     23  3.000                                                     
     0   .000     23  3.000                                                     
     0   .000     23  3.000                                                     
     2   .000     23  3.000                                                     
     2   .000     23  3.000                                                     
  local pseudopotential read in
  partial core-charges read in
  atomic valenz-charges read in
  non local Contribution for L=           1  read in
    real space projection operators read in
  non local Contribution for L=           1  read in
    real space projection operators read in
  non local Contribution for L=           0  read in
    real space projection operators read in
  non local Contribution for L=           0  read in
    real space projection operators read in
  non local Contribution for L=           2  read in
    real space projection operators read in
  non local Contribution for L=           2  read in
    real space projection operators read in
    PAW grid and wavefunctions read in
 
   number of l-projection  operators is LMAX  =           6
   number of lm-projection operators is LMMAX =          18
 
 POTCAR:   PAW_PBE Mg 05Jan2001                   
   VRHFIN =Mg: s2p0                                                             
   LEXCH  = PE                                                                  
   EATOM  =    23.0029 eV,    1.6907 Ry                                         
                                                                                
   TITEL  = PAW_PBE Mg 05Jan2001                                                
   LULTRA =        F    use ultrasoft PP ?                                      
   IUNSCR =        1    unscreen: 0-lin 1-nonlin 2-no                           
   RPACOR =    2.000    partial core radius                                     
   POMASS =   24.305; ZVAL   =    2.000    mass and valenz                      
   RCORE  =    2.000    outmost cutoff radius                                   
   RWIGS  =    2.880; RWIGS  =    1.524    wigner-seitz radius (au A)           
   ENMAX  =  210.012; ENMIN  =  157.509 eV                                      
   ICORE  =        2    local potential                                         
   LCOR   =        T    correct aug charges                                     
   LPAW   =        T    paw PP                                                  
   EAUG   =  274.554                                                            
   DEXC   =    -.136                                                            
   RMAX   =    3.182    core radius for proj-oper                               
   RAUG   =    1.300    factor for augmentation sphere                          
   RDEP   =    2.025    radius for radial grids                                 
   QCUT   =   -3.929; QGAM   =    7.858    optimization parameters              
                                                                                
   Description                                                                  
     l     E      TYP  RCUT    TYP  RCUT                                        
     0   .000     23  2.000                                                     
     0  2.000     23  2.000                                                     
     1   .000     23  2.000                                                     
     1  2.000     23  2.000                                                     
     2   .000     23  2.000                                                     
  local pseudopotential read in
  partial core-charges read in
  atomic valenz-charges read in
  non local Contribution for L=           0  read in
    real space projection operators read in
  non local Contribution for L=           0  read in
    real space projection operators read in
  non local Contribution for L=           1  read in
    real space projection operators read in
  non local Contribution for L=           1  read in
    real space projection operators read in
    PAW grid and wavefunctions read in
 
   number of l-projection  operators is LMAX  =           4
   number of lm-projection operators is LMMAX =           8
 
 POTCAR:   PAW_PBE O 08Apr2002                    
   VRHFIN =O: s2p4                                                              
   LEXCH  = PE                                                                  
   EATOM  =   432.3788 eV,   31.7789 Ry                                         
                                                                                
   TITEL  = PAW_PBE O 08Apr2002                                                 
   LULTRA =        F    use ultrasoft PP ?                                      
   IUNSCR =        0    unscreen: 0-lin 1-nonlin 2-no                           
   RPACOR =     .000    partial core radius                                     
   POMASS =   16.000; ZVAL   =    6.000    mass and valenz                      
   RCORE  =    1.520    outmost cutoff radius                                   
   RWIGS  =    1.550; RWIGS  =     .820    wigner-seitz radius (au A)           
   ENMAX  =  400.000; ENMIN  =  300.000 eV                                      
   ICORE  =        2    local potential                                         
   LCOR   =        T    correct aug charges                                     
   LPAW   =        T    paw PP                                                  
   EAUG   =  605.392                                                            
   DEXC   =     .000                                                            
   RMAX   =    2.264    core radius for proj-oper                               
   RAUG   =    1.300    factor for augmentation sphere                          
   RDEP   =    1.550    radius for radial grids                                 
   QCUT   =   -5.520; QGAM   =   11.041    optimization parameters              
                                                                                
   Description                                                                  
     l     E      TYP  RCUT    TYP  RCUT                                        
     0   .000     23  1.200                                                     
     0  -.700     23  1.200                                                     
     1   .000     23  1.520                                                     
     1   .600     23  1.520                                                     
     2   .000      7  1.500                                                     
  local pseudopotential read in
  atomic valenz-charges read in
  non local Contribution for L=           0  read in
    real space projection operators read in
  non local Contribution for L=           0  read in
    real space projection operators read in
  non local Contribution for L=           1  read in
    real space projection operators read in
  non local Contribution for L=           1  read in
    real space projection operators read in
    PAW grid and wavefunctions read in
 
   number of l-projection  operators is LMAX  =           4
   number of lm-projection operators is LMMAX =           8
 
 POTCAR:   PAW_PBE Ti 08Apr2002                   
   VRHFIN =Ti: d3 s1                                                            
   LEXCH  = PE                                                                  
   EATOM  =    94.7929 eV,    6.9671 Ry                                         
                                                                                
   TITEL  = PAW_PBE Ti 08Apr2002                                                
   LULTRA =        F    use ultrasoft PP ?                                      
   IUNSCR =        1    unscreen: 0-lin 1-nonlin 2-no                           
   RPACOR =    2.200    partial core radius                                     
   POMASS =   47.880; ZVAL   =    4.000    mass and valenz                      
   RCORE  =    2.800    outmost cutoff radius                                   
   RWIGS  =    2.500; RWIGS  =    1.323    wigner-seitz radius (au A)           
   ENMAX  =  178.330; ENMIN  =  133.747 eV                                      
   RCLOC  =    2.215    cutoff for local pot                                    
   LCOR   =        T    correct aug charges                                     
   LPAW   =        T    paw PP                                                  
   EAUG   =  328.883                                                            
   DEXC   =    -.043                                                            
   RMAX   =    3.453    core radius for proj-oper                               
   RAUG   =    1.300    factor for augmentation sphere                          
   RDEP   =    2.885    radius for radial grids                                 
   QCUT   =   -3.620; QGAM   =    7.241    optimization parameters              
                                                                                
   Description                                                                  
     l     E      TYP  RCUT    TYP  RCUT                                        
     2   .000     23  2.800                                                     
     2   .000     23  2.800                                                     
     0   .000     23  2.800                                                     
     0  1.500     23  2.800                                                     
     1  -.400     23  2.800                                                     
     3   .000      7   .000                                                     
  local pseudopotential read in
  partial core-charges read in
  atomic valenz-charges read in
  non local Contribution for L=           2  read in
    real space projection operators read in
  non local Contribution for L=           2  read in
    real space projection operators read in
  non local Contribution for L=           0  read in
    real space projection operators read in
  non local Contribution for L=           0  read in
    real space projection operators read in
  non local Contribution for L=           1  read in
    real space projection operators read in
    PAW grid and wavefunctions read in
 
   number of l-projection  operators is LMAX  =           5
   number of lm-projection operators is LMMAX =          15
 

 ----------------------------------------------------------------------------- 
|                                                                             |
|  ADVICE TO THIS USER RUNNING 'VASP/VAMP'   (HEAR YOUR MASTER'S VOICE ...):  |
|                                                                             |
|      You have a (more or less) 'large supercell' and for larger cells       |
|      it might be more efficient to use real space projection operators      |
|      So try LREAL= Auto  in the INCAR   file.                               |
|      Mind: If you want to do a very accurate calculations keep the          |
|      reciprocal projection scheme          (i.e. LREAL=.FALSE.)             |
|                                                                             |
 ----------------------------------------------------------------------------- 

 PAW_PBE Al 04Jan2001                   :
 energy of atom  1       EATOM=  -53.5387
 kinetic energy error for atom=    0.0005 (will be added to EATOM!!)
 PAW_PBE Ca_pv 06Sep2000                :
 energy of atom  2       EATOM= -612.5326
 kinetic energy error for atom=    0.0002 (will be added to EATOM!!)
 PAW_PBE Mg 05Jan2001                   :
 energy of atom  3       EATOM=  -23.0029
 kinetic energy error for atom=    0.0001 (will be added to EATOM!!)
 PAW_PBE O 08Apr2002                    :
 energy of atom  4       EATOM= -432.3788
 kinetic energy error for atom=    0.1156 (will be added to EATOM!!)
 PAW_PBE Ti 08Apr2002                   :
 energy of atom  5       EATOM=  -94.7929
 kinetic energy error for atom=    0.0005 (will be added to EATOM!!)
 
 
 POSCAR: supercell generated structure. e_col = 0
  positions in direct lattice
  velocities in cartesian coordinates
 exchange correlation table for  LEXCH =        8
   RHO(1)=    0.500       N(1)  =     2000
   RHO(2)=  100.500       N(2)  =     4000
 


--------------------------------------------------------------------------------------------------------


 ion  position               nearest neighbor table
   1  0.000  1.000  0.000- 189 1.91 152 1.91 175 1.91 146 1.92 183 1.92 157 1.92  25 2.86  60 2.86
                            35 2.86  19 2.87  54 2.87  41 2.87  77 3.36  85 3.36  73 3.36  75 3.36
   2  1.000  0.000  0.500- 156 1.91 191 1.91 166 1.91 185 1.92 150 1.92 172 1.92  27 2.86  64 2.86
                            50 2.86  21 2.87  58 2.87  32 2.87  82 3.36  74 3.36  86 3.36  88 3.36
   3  0.000  0.500  0.000- 164 1.91 177 1.91 187 1.91 158 1.92 171 1.92 145 1.92  37 2.86  48 2.86
                            23 2.86  42 2.87  31 2.87  53 2.87  73 3.36  77 3.36  81 3.36  79 3.36
   4  1.000  0.500  0.500- 168 1.91 179 1.91 154 1.91 173 1.92 162 1.92 184 1.92  52 2.86  39 2.86
                            62 2.86  33 2.87  46 2.87  20 2.87  86 3.36  82 3.36  78 3.36  84 3.36
   5  0.500  1.000  0.000- 176 1.91 165 1.91 151 1.91 170 1.92 159 1.92 181 1.92  36 2.86  49 2.86
                            59 2.86  43 2.87  30 2.87  17 2.87  85 3.36  77 3.36  81 3.36  83 3.36
   6  0.500  0.000  0.500- 180 1.91 167 1.91 190 1.91 174 1.92 161 1.92 148 1.92  51 2.86  40 2.86
                            26 2.86  34 2.87  45 2.87  56 2.87  74 3.36  82 3.36  78 3.36  80 3.36
   7  0.500  0.500  0.000- 188 1.91 153 1.91 163 1.91 182 1.92 147 1.92 169 1.92  24 2.86  61 2.86
                            47 2.86  18 2.87  55 2.87  29 2.87  81 3.36  85 3.36  73 3.36  87 3.36
   8  0.500  0.500  0.500- 192 1.91 155 1.91 178 1.91 186 1.92 149 1.92 160 1.92  28 2.86  63 2.86
                            38 2.86  22 2.87  57 2.87  44 2.87  78 3.36  86 3.36  74 3.36  88 3.36
   9  1.000  0.000  0.239- 141 1.79 122 1.79 127 1.79  89 1.91  92 2.51  65 3.34  71 3.34  69 3.34

  10  0.000  1.000  0.739- 143 1.79 126 1.79 136 1.79  90 1.91  91 2.51  72 3.34  66 3.34  68 3.34

  11  1.000  0.500  0.239- 128 1.79 135 1.79 121 1.79  93 1.91  96 2.51  67 3.34  69 3.34  71 3.34

  12  0.000  0.500  0.739- 137 1.79 132 1.79 142 1.79  94 1.91  95 2.51  70 3.34  68 3.34  66 3.34

  13  0.500  0.000  0.239- 129 1.79 134 1.79 139 1.79  97 1.91 100 2.51  67 3.34  69 3.34  65 3.34

  14  0.500  1.000  0.739- 138 1.79 131 1.79 124 1.79  98 1.91  99 2.51  70 3.34  68 3.34  72 3.34

  15  0.500  0.500  0.239- 140 1.79 123 1.79 133 1.79 101 1.91 104 2.51  71 3.34  65 3.34  67 3.34

  16  0.500  0.500  0.739- 125 1.79 144 1.79 130 1.79 102 1.91 103 2.51  72 3.34  66 3.34  70 3.34

  17  0.417  0.083  0.105- 194 1.91 195 1.91 107 1.92 159 1.92 170 1.92  97 1.97  43 2.86  30 2.86
                            19 2.87  18 2.87   5 2.87  77 3.37  81 3.37  75 3.37
  18  0.417  0.333  0.105- 193 1.91 195 1.91 107 1.92 169 1.92 147 1.92 101 1.97  55 2.86  29 2.86
                            19 2.87  17 2.87   7 2.87  81 3.37  73 3.37  75 3.37
  19  0.167  0.083  0.105- 193 1.91 194 1.91 107 1.92 157 1.92 146 1.92  89 1.97  41 2.86  54 2.86
                            17 2.87  18 2.87   1 2.87  77 3.37  73 3.37  75 3.37
  20  0.083  0.417  0.605- 198 1.91 197 1.91 108 1.92 173 1.92 162 1.92  94 1.97  33 2.86  46 2.86
                            21 2.87  22 2.87   4 2.87  78 3.37  82 3.37  76 3.37
  21  0.083  0.167  0.605- 196 1.91 198 1.91 108 1.92 172 1.92 150 1.92  90 1.97  32 2.86  58 2.86
                            20 2.87  22 2.87   2 2.87  82 3.37  74 3.37  76 3.37
  22  0.333  0.417  0.605- 196 1.91 197 1.91 108 1.92 160 1.92 149 1.92 102 1.97  57 2.86  44 2.86
                            21 2.87  20 2.87   8 2.87  78 3.37  74 3.37  76 3.37
  23  0.082  0.418  0.895-  95 1.91 177 1.93 164 1.93 105 1.94 200 1.94 201 1.94  37 2.81  48 2.81
                             3 2.86  25 2.92  24 2.92  83 3.37  79 3.37  73 3.38  66 3.46
  24  0.336  0.418  0.895- 103 1.91 153 1.93 163 1.93 105 1.94 199 1.94 201 1.94  47 2.81  61 2.81
                             7 2.86  25 2.92  23 2.92  75 3.37  79 3.37  73 3.38  66 3.46
  25  0.082  0.164  0.895-  91 1.91 152 1.93 175 1.93 105 1.94 199 1.94 200 1.94  35 2.81  60 2.81
                             1 2.86  24 2.92  23 2.92  75 3.37  83 3.37  73 3.38  66 3.46
  26  0.418  0.082  0.395- 100 1.91 180 1.93 167 1.93 106 1.94 204 1.94 203 1.94  51 2.81  40 2.81
                             6 2.86  27 2.92  28 2.92  80 3.37  84 3.37  74 3.38  65 3.46
  27  0.164  0.082  0.395-  92 1.91 156 1.93 166 1.93 106 1.94 202 1.94 204 1.94  50 2.81  64 2.81
                             2 2.86  28 2.92  26 2.92  76 3.37  80 3.37  74 3.38  65 3.46
  28  0.418  0.336  0.395- 104 1.91 155 1.93 178 1.93 106 1.94 202 1.94 203 1.94  38 2.81  63 2.81
                             8 2.86  27 2.92  26 2.92  76 3.37  84 3.37  74 3.38  65 3.46
  29  0.417  0.583  0.105- 206 1.91 207 1.91 111 1.92 147 1.92 182 1.92 101 1.97  18 2.86  55 2.86
                            30 2.87  31 2.87   7 2.87  73 3.37  85 3.37  79 3.37
  30  0.417  0.833  0.105- 205 1.91 207 1.91 111 1.92 181 1.92 159 1.92  97 1.97  43 2.86  17 2.86
                            31 2.87  29 2.87   5 2.87  85 3.37  77 3.37  79 3.37
  31  0.167  0.583  0.105- 205 1.91 206 1.91 111 1.92 145 1.92 158 1.92  93 1.97  42 2.86  53 2.86
                            30 2.87  29 2.87   3 2.87  73 3.37  77 3.37  79 3.37
  32  0.083  0.917  0.605- 210 1.91 209 1.91 112 1.92 185 1.92 150 1.92  90 1.97  21 2.86  58 2.86
                            33 2.87  34 2.87   2 2.87  86 3.37  74 3.37  80 3.37
  33  0.083  0.667  0.605- 208 1.91 210 1.91 112 1.92 184 1.92 162 1.92  94 1.97  20 2.86  46 2.86
                            32 2.87  34 2.87   4 2.87  86 3.37  78 3.37  80 3.37
  34  0.333  0.917  0.605- 208 1.91 209 1.91 112 1.92 148 1.92 161 1.92  98 1.97  56 2.86  45 2.86
                            32 2.87  33 2.87   6 2.87  74 3.37  78 3.37  80 3.37
  35  0.082  0.918  0.895-  91 1.91 189 1.93 152 1.93 109 1.94 212 1.94 213 1.94  25 2.81  60 2.81
                             1 2.86  37 2.92  36 2.92  87 3.37  75 3.37  77 3.38  68 3.46
  36  0.336  0.918  0.895-  99 1.91 165 1.93 151 1.93 109 1.94 211 1.94 213 1.94  59 2.81  49 2.81
                             5 2.86  37 2.92  35 2.92  79 3.37  75 3.37  77 3.38  68 3.46
  37  0.082  0.664  0.895-  95 1.91 164 1.93 187 1.93 109 1.94 211 1.94 212 1.94  23 2.81  48 2.81
                             3 2.86  36 2.92  35 2.92  79 3.37  87 3.37  77 3.38  68 3.46
  38  0.418  0.582  0.395- 104 1.91 155 1.93 192 1.93 110 1.94 216 1.94 215 1.94  28 2.81  63 2.81
                             8 2.86  40 2.92  39 2.92  76 3.37  88 3.37  78 3.38  67 3.46
  39  0.164  0.582  0.395-  96 1.91 168 1.93 154 1.93 110 1.94 214 1.94 216 1.94  62 2.81  52 2.81
                             4 2.86  40 2.92  38 2.92  80 3.37  76 3.37  78 3.38  67 3.46
  40  0.418  0.836  0.395- 100 1.91 167 1.93 190 1.93 110 1.94 214 1.94 215 1.94  26 2.81  51 2.81
                             6 2.86  39 2.92  38 2.92  80 3.37  88 3.37  78 3.38  67 3.46
  41  0.917  0.083  0.105- 219 1.91 218 1.91 115 1.92 183 1.92 146 1.92  89 1.97  54 2.86  19 2.86
                            43 2.87  42 2.87   1 2.87  85 3.37  73 3.37  83 3.37
  42  0.917  0.333  0.105- 217 1.91 219 1.91 115 1.92 145 1.92 171 1.92  93 1.97  53 2.86  31 2.86
                            41 2.87  43 2.87   3 2.87  73 3.37  81 3.37  83 3.37
  43  0.667  0.083  0.105- 217 1.91 218 1.91 115 1.92 181 1.92 170 1.92  97 1.97  17 2.86  30 2.86
                            41 2.87  42 2.87   5 2.87  85 3.37  81 3.37  83 3.37
  44  0.583  0.417  0.605- 222 1.91 221 1.91 116 1.92 186 1.92 149 1.92 102 1.97  22 2.86  57 2.86
                            46 2.87  45 2.87   8 2.87  86 3.37  74 3.37  84 3.37
  45  0.583  0.167  0.605- 220 1.91 222 1.91 116 1.92 148 1.92 174 1.92  98 1.97  34 2.86  56 2.86
                            46 2.87  44 2.87   6 2.87  74 3.37  82 3.37  84 3.37
  46  0.833  0.417  0.605- 220 1.91 221 1.91 116 1.92 184 1.92 173 1.92  94 1.97  33 2.86  20 2.86
                            45 2.87  44 2.87   4 2.87  86 3.37  82 3.37  84 3.37
  47  0.582  0.418  0.895- 103 1.91 188 1.93 153 1.93 113 1.94 224 1.94 225 1.94  24 2.81  61 2.81
                             7 2.86  48 2.92  49 2.92  87 3.37  75 3.37  81 3.38  70 3.46
  48  0.836  0.418  0.895-  95 1.91 177 1.93 187 1.93 113 1.94 223 1.94 225 1.94  23 2.81  37 2.81
                             3 2.86  49 2.92  47 2.92  83 3.37  87 3.37  81 3.38  70 3.46
  49  0.582  0.164  0.895-  99 1.91 176 1.93 151 1.93 113 1.94 223 1.94 224 1.94  59 2.81  36 2.81
                             5 2.86  48 2.92  47 2.92  83 3.37  75 3.37  81 3.38  70 3.46
  50  0.918  0.082  0.395-  92 1.91 191 1.93 156 1.93 114 1.94 227 1.94 228 1.94  64 2.81  27 2.81
                             2 2.86  51 2.92  52 2.92  88 3.37  76 3.37  82 3.38  69 3.46
  51  0.664  0.082  0.395- 100 1.91 180 1.93 190 1.93 114 1.94 226 1.94 228 1.94  26 2.81  40 2.81
                             6 2.86  52 2.92  50 2.92  84 3.37  88 3.37  82 3.38  69 3.46
  52  0.918  0.336  0.395-  96 1.91 179 1.93 154 1.93 114 1.94 226 1.94 227 1.94  62 2.81  39 2.81
                             4 2.86  51 2.92  50 2.92  84 3.37  76 3.37  82 3.38  69 3.46
  53  0.917  0.583  0.105- 231 1.91 230 1.91 119 1.92 171 1.92 158 1.92  93 1.97  42 2.86  31 2.86
                            54 2.87  55 2.87   3 2.87  81 3.37  77 3.37  87 3.37
  54  0.917  0.833  0.105- 229 1.91 231 1.91 119 1.92 157 1.92 183 1.92  89 1.97  41 2.86  19 2.86
                            53 2.87  55 2.87   1 2.87  77 3.37  85 3.37  87 3.37
  55  0.667  0.583  0.105- 229 1.91 230 1.91 119 1.92 169 1.92 182 1.92 101 1.97  18 2.86  29 2.86
                            54 2.87  53 2.87   7 2.87  81 3.37  85 3.37  87 3.37
  56  0.583  0.917  0.605- 234 1.91 233 1.91 120 1.92 161 1.92 174 1.92  98 1.97  34 2.86  45 2.86
                            58 2.87  57 2.87   6 2.87  82 3.37  78 3.37  88 3.37
  57  0.583  0.667  0.605- 232 1.91 234 1.91 120 1.92 160 1.92 186 1.92 102 1.97  22 2.86  44 2.86
                            58 2.87  56 2.87   8 2.87  78 3.37  86 3.37  88 3.37
  58  0.833  0.917  0.605- 232 1.91 233 1.91 120 1.92 172 1.92 185 1.92  90 1.97  32 2.86  21 2.86
                            56 2.87  57 2.87   2 2.87  82 3.37  86 3.37  88 3.37
  59  0.582  0.918  0.895-  99 1.91 165 1.93 176 1.93 117 1.94 236 1.94 237 1.94  36 2.81  49 2.81
                             5 2.86  60 2.92  61 2.92  83 3.37  79 3.37  85 3.38  72 3.46
  60  0.836  0.918  0.895-  91 1.91 189 1.93 175 1.93 117 1.94 235 1.94 237 1.94  35 2.81  25 2.81
                             1 2.86  61 2.92  59 2.92  87 3.37  83 3.37  85 3.38  72 3.46
  61  0.582  0.664  0.895- 103 1.91 188 1.93 163 1.93 117 1.94 235 1.94 236 1.94  47 2.81  24 2.81
                             7 2.86  60 2.92  59 2.92  87 3.37  79 3.37  85 3.38  72 3.46
  62  0.918  0.582  0.395-  96 1.91 179 1.93 168 1.93 118 1.94 239 1.94 240 1.94  52 2.81  39 2.81
                             4 2.86  64 2.92  63 2.92  80 3.37  84 3.37  86 3.38  71 3.46
  63  0.664  0.582  0.395- 104 1.91 192 1.93 178 1.93 118 1.94 238 1.94 240 1.94  38 2.81  28 2.81
                             8 2.86  64 2.92  62 2.92  88 3.37  84 3.37  86 3.38  71 3.46
  64  0.918  0.836  0.395-  92 1.91 191 1.93 166 1.93 118 1.94 238 1.94 239 1.94  50 2.81  27 2.81
                             2 2.86  63 2.92  62 2.92  88 3.37  80 3.37  86 3.38  71 3.46
  65  0.333  0.167  0.260- 202 2.55 204 2.55 203 2.55 123 2.88 122 2.88 133 2.88 127 2.88 129 2.88
                           134 2.88 193 2.93 194 2.93 195 2.93   9 3.34  15 3.34  13 3.34  27 3.46
  66  0.167  0.333  0.760- 199 2.55 201 2.55 200 2.55 125 2.88 126 2.88 130 2.88 136 2.88 137 2.88
                           132 2.88 196 2.93 197 2.93 198 2.93  10 3.34  16 3.34  12 3.34  25 3.46
  67  0.333  0.667  0.260- 214 2.55 215 2.55 216 2.55 129 2.88 128 2.88 139 2.88 121 2.88 140 2.88
                           123 2.88 205 2.93 207 2.93 206 2.93  13 3.34  11 3.34  15 3.34  40 3.46
  68  0.167  0.833  0.760- 211 2.55 213 2.55 212 2.55 131 2.88 132 2.88 124 2.88 142 2.88 143 2.88
                           126 2.88 208 2.93 209 2.93 210 2.93  14 3.34  12 3.34  10 3.34  36 3.46
  69  0.833  0.167  0.260- 226 2.55 228 2.55 227 2.55 135 2.88 134 2.88 139 2.88 121 2.88 141 2.88
                           122 2.88 217 2.93 218 2.93 219 2.93  13 3.34  11 3.34   9 3.34  51 3.46
  70  0.667  0.333  0.760- 223 2.55 225 2.55 224 2.55 137 2.88 138 2.88 142 2.88 124 2.88 144 2.88
                           125 2.88 220 2.93 221 2.93 222 2.93  12 3.34  14 3.34  16 3.34  48 3.46
  71  0.833  0.667  0.260- 238 2.55 240 2.55 239 2.55 140 2.88 141 2.88 133 2.88 127 2.88 128 2.88
                           135 2.88 229 2.93 230 2.93 231 2.93   9 3.34  15 3.34  11 3.34  64 3.46
  72  0.667  0.833  0.760- 235 2.55 237 2.55 236 2.55 143 2.88 144 2.88 136 2.88 130 2.88 138 2.88
                           131 2.88 232 2.93 233 2.93 234 2.93  10 3.34  16 3.34  14 3.34  60 3.46
  73  0.167  0.333  0.026- 145 1.96 147 1.96 146 1.96 105 1.98   3 3.36   7 3.36   1 3.36  31 3.37
                            42 3.37  18 3.37  29 3.37  19 3.37  41 3.37  25 3.38  24 3.38  23 3.38
  74  0.333  0.167  0.526- 148 1.96 149 1.96 150 1.96 106 1.98   6 3.36   8 3.36   2 3.36  45 3.37
                            34 3.37  22 3.37  21 3.37  44 3.37  32 3.37  27 3.38  28 3.38  26 3.38
  75  0.333  0.167  0.974- 151 1.94 153 1.94 152 1.94 107 1.97   7 3.36   1 3.36   5 3.36  24 3.37
                            25 3.37  49 3.37  36 3.37  47 3.37  35 3.37  19 3.37  18 3.37  17 3.37
  76  0.167  0.333  0.474- 155 1.94 154 1.94 156 1.94 108 1.97   8 3.36   2 3.36   4 3.36  28 3.37
                            27 3.37  39 3.37  52 3.37  38 3.37  50 3.37  21 3.37  22 3.37  20 3.37
  77  0.167  0.833  0.026- 157 1.96 159 1.96 158 1.96 109 1.98   1 3.36   5 3.36   3 3.36  19 3.37
                            54 3.37  31 3.37  30 3.37  17 3.37  53 3.37  36 3.38  37 3.38  35 3.38
  78  0.333  0.667  0.526- 160 1.96 161 1.96 162 1.96 110 1.98   8 3.36   6 3.36   4 3.36  22 3.37
                            57 3.37  34 3.37  33 3.37  56 3.37  20 3.37  40 3.38  39 3.38  38 3.38
  79  0.333  0.667  0.974- 163 1.94 165 1.94 164 1.94 111 1.97   5 3.36   3 3.36   7 3.36  36 3.37
                            37 3.37  24 3.37  61 3.37  59 3.37  23 3.37  30 3.37  31 3.37  29 3.37
  80  0.167  0.833  0.474- 167 1.94 166 1.94 168 1.94 112 1.97   6 3.36   4 3.36   2 3.36  39 3.37
                            40 3.37  27 3.37  64 3.37  26 3.37  62 3.37  34 3.37  33 3.37  32 3.37
  81  0.667  0.333  0.026- 169 1.96 170 1.96 171 1.96 113 1.98   7 3.36   3 3.36   5 3.36  55 3.37
                            18 3.37  42 3.37  43 3.37  53 3.37  17 3.37  48 3.38  49 3.38  47 3.38
  82  0.833  0.167  0.526- 172 1.96 174 1.96 173 1.96 114 1.98   2 3.36   6 3.36   4 3.36  58 3.37
                            21 3.37  45 3.37  46 3.37  56 3.37  20 3.37  51 3.38  52 3.38  50 3.38
  83  0.833  0.167  0.974- 176 1.94 177 1.94 175 1.94 115 1.97   5 3.36   3 3.36   1 3.36  49 3.37
                            48 3.37  60 3.37  25 3.37  59 3.37  23 3.37  43 3.37  42 3.37  41 3.37
  84  0.667  0.333  0.474- 178 1.94 180 1.94 179 1.94 116 1.97   4 3.36   6 3.36   8 3.36  52 3.37
                            51 3.37  63 3.37  28 3.37  62 3.37  26 3.37  46 3.37  45 3.37  44 3.37
  85  0.667  0.833  0.026- 181 1.96 182 1.96 183 1.96 117 1.98   5 3.36   7 3.36   1 3.36  43 3.37
                            30 3.37  55 3.37  54 3.37  41 3.37  29 3.37  60 3.38  61 3.38  59 3.38
  86  0.833  0.667  0.526- 184 1.96 186 1.96 185 1.96 118 1.98   4 3.36   8 3.36   2 3.36  46 3.37
                            33 3.37  57 3.37  58 3.37  44 3.37  32 3.37  64 3.38  63 3.38  62 3.38
  87  0.833  0.667  0.974- 188 1.94 187 1.94 189 1.94 119 1.97   7 3.36   1 3.36   3 3.36  61 3.37
                            60 3.37  48 3.37  37 3.37  47 3.37  35 3.37  54 3.37  55 3.37  53 3.37
  88  0.667  0.833  0.474- 192 1.94 190 1.94 191 1.94 120 1.97   8 3.36   2 3.36   6 3.36  63 3.37
                            64 3.37  51 3.37  40 3.37  50 3.37  38 3.37  58 3.37  57 3.37  56 3.37
  89  0.000  1.000  0.153-   9 1.91  41 1.97  19 1.97  54 1.97
  90  1.000  0.000  0.653-  10 1.91  32 1.97  21 1.97  58 1.97
  91  0.000  1.000  0.850-  35 1.91  25 1.91  60 1.91  10 2.51
  92  1.000  0.000  0.350-  50 1.91  27 1.91  64 1.91   9 2.51
  93  0.000  0.500  0.153-  11 1.91  53 1.97  42 1.97  31 1.97
  94  1.000  0.500  0.653-  12 1.91  20 1.97  33 1.97  46 1.97
  95  0.000  0.500  0.850-  23 1.91  37 1.91  48 1.91  12 2.51
  96  1.000  0.500  0.350-  62 1.91  52 1.91  39 1.91  11 2.51
  97  0.500  1.000  0.153-  13 1.91  17 1.97  43 1.97  30 1.97
  98  0.500  0.000  0.653-  14 1.91  56 1.97  34 1.97  45 1.97
  99  0.500  1.000  0.850-  59 1.91  36 1.91  49 1.91  14 2.51
 100  0.500  0.000  0.350-  26 1.91  51 1.91  40 1.91  13 2.51
 101  0.500  0.500  0.153-  15 1.91  29 1.97  18 1.97  55 1.97
 102  0.500  0.500  0.653-  16 1.91  44 1.97  22 1.97  57 1.97
 103  0.500  0.500  0.850-  47 1.91  24 1.91  61 1.91  16 2.51
 104  0.500  0.500  0.350-  38 1.91  28 1.91  63 1.91  15 2.51
 105  0.167  0.333  0.938-  25 1.94  24 1.94  23 1.94  73 1.98
 106  0.333  0.167  0.438-  27 1.94  28 1.94  26 1.94  74 1.98
 107  0.333  0.167  0.062-  17 1.92  19 1.92  18 1.92  75 1.97
 108  0.167  0.333  0.562-  20 1.92  21 1.92  22 1.92  76 1.97
 109  0.167  0.833  0.938-  36 1.94  37 1.94  35 1.94  77 1.98
 110  0.333  0.667  0.438-  40 1.94  39 1.94  38 1.94  78 1.98
 111  0.333  0.667  0.062-  29 1.92  30 1.92  31 1.92  79 1.97
 112  0.167  0.833  0.562-  32 1.92  34 1.92  33 1.92  80 1.97
 113  0.667  0.333  0.938-  48 1.94  49 1.94  47 1.94  81 1.98
 114  0.833  0.167  0.438-  51 1.94  52 1.94  50 1.94  82 1.98
 115  0.833  0.167  0.062-  41 1.92  43 1.92  42 1.92  83 1.97
 116  0.667  0.333  0.562-  44 1.92  46 1.92  45 1.92  84 1.97
 117  0.667  0.833  0.938-  60 1.94  61 1.94  59 1.94  85 1.98
 118  0.833  0.667  0.438-  64 1.94  63 1.94  62 1.94  86 1.98
 119  0.833  0.667  0.062-  53 1.92  54 1.92  55 1.92  87 1.97
 120  0.667  0.833  0.562-  56 1.92  58 1.92  57 1.92  88 1.97
 121  0.089  0.411  0.249-  11 1.79 242 2.08 243 2.09  69 2.88  67 2.88
 122  0.089  0.179  0.249-   9 1.79 242 2.08 243 2.09  65 2.88  69 2.88
 123  0.321  0.411  0.249-  15 1.79 242 2.08 243 2.09  65 2.88  67 2.88
 124  0.411  0.089  0.749-  14 1.79 241 2.08 244 2.09  68 2.88  70 2.88
 125  0.411  0.321  0.749-  16 1.79 241 2.08 244 2.09  66 2.88  70 2.88
 126  0.179  0.089  0.749-  10 1.79 241 2.08 244 2.09  66 2.88  68 2.88
 127  0.089  0.911  0.249-   9 1.79 246 2.08 247 2.09  65 2.88  71 2.88
 128  0.089  0.679  0.249-  11 1.79 246 2.08 247 2.09  67 2.88  71 2.88
 129  0.321  0.911  0.249-  13 1.79 246 2.08 247 2.09  67 2.88  65 2.88
 130  0.411  0.589  0.749-  16 1.79 245 2.08 248 2.09  66 2.88  72 2.88
 131  0.411  0.821  0.749-  14 1.79 245 2.08 248 2.09  68 2.88  72 2.88
 132  0.179  0.589  0.749-  12 1.79 245 2.08 248 2.09  68 2.88  66 2.88
 133  0.589  0.411  0.249-  15 1.79 250 2.08 251 2.09  71 2.88  65 2.88
 134  0.589  0.179  0.249-  13 1.79 250 2.08 251 2.09  69 2.88  65 2.88
 135  0.821  0.411  0.249-  11 1.79 250 2.08 251 2.09  69 2.88  71 2.88
 136  0.911  0.089  0.749-  10 1.79 249 2.08 252 2.09  72 2.88  66 2.88
 137  0.911  0.321  0.749-  12 1.79 249 2.08 252 2.09  70 2.88  66 2.88
 138  0.679  0.089  0.749-  14 1.79 249 2.08 252 2.09  70 2.88  72 2.88
 139  0.589  0.911  0.249-  13 1.79 254 2.08 255 2.09  69 2.88  67 2.88
 140  0.589  0.679  0.249-  15 1.79 254 2.08 255 2.09  71 2.88  67 2.88
 141  0.821  0.911  0.249-   9 1.79 254 2.08 255 2.09  71 2.88  69 2.88
 142  0.911  0.589  0.749-  12 1.79 253 2.08 256 2.09  68 2.88  70 2.88
 143  0.911  0.821  0.749-  10 1.79 253 2.08 256 2.09  72 2.88  68 2.88
 144  0.679  0.589  0.749-  16 1.79 253 2.08 256 2.09  72 2.88  70 2.88
 145  0.074  0.426  0.056-   3 1.92  42 1.92  31 1.92  73 1.96
 146  0.074  0.148  0.056-   1 1.92  19 1.92  41 1.92  73 1.96
 147  0.352  0.426  0.056-   7 1.92  18 1.92  29 1.92  73 1.96
 148  0.426  0.074  0.556-   6 1.92  34 1.92  45 1.92  74 1.96
 149  0.426  0.352  0.556-   8 1.92  22 1.92  44 1.92  74 1.96
 150  0.148  0.074  0.556-   2 1.92  21 1.92  32 1.92  74 1.96
 151  0.426  0.074  0.946-   5 1.91  36 1.93  49 1.93  75 1.94
 152  0.148  0.074  0.946-   1 1.91  25 1.93  35 1.93  75 1.94
 153  0.426  0.352  0.946-   7 1.91  24 1.93  47 1.93  75 1.94
 154  0.074  0.426  0.446-   4 1.91  52 1.93  39 1.93  76 1.94
 155  0.352  0.426  0.446-   8 1.91  28 1.93  38 1.93  76 1.94
 156  0.074  0.148  0.446-   2 1.91  27 1.93  50 1.93  76 1.94
 157  0.074  0.926  0.056-   1 1.92  54 1.92  19 1.92  77 1.96
 158  0.074  0.648  0.056-   3 1.92  31 1.92  53 1.92  77 1.96
 159  0.352  0.926  0.056-   5 1.92  30 1.92  17 1.92  77 1.96
 160  0.426  0.574  0.556-   8 1.92  22 1.92  57 1.92  78 1.96
 161  0.426  0.852  0.556-   6 1.92  34 1.92  56 1.92  78 1.96
 162  0.148  0.574  0.556-   4 1.92  33 1.92  20 1.92  78 1.96
 163  0.426  0.574  0.946-   7 1.91  24 1.93  61 1.93  79 1.94
 164  0.148  0.574  0.946-   3 1.91  37 1.93  23 1.93  79 1.94
 165  0.426  0.852  0.946-   5 1.91  36 1.93  59 1.93  79 1.94
 166  0.074  0.926  0.446-   2 1.91  64 1.93  27 1.93  80 1.94
 167  0.352  0.926  0.446-   6 1.91  40 1.93  26 1.93  80 1.94
 168  0.074  0.648  0.446-   4 1.91  39 1.93  62 1.93  80 1.94
 169  0.574  0.426  0.056-   7 1.92  55 1.92  18 1.92  81 1.96
 170  0.574  0.148  0.056-   5 1.92  43 1.92  17 1.92  81 1.96
 171  0.852  0.426  0.056-   3 1.92  42 1.92  53 1.92  81 1.96
 172  0.926  0.074  0.556-   2 1.92  21 1.92  58 1.92  82 1.96
 173  0.926  0.352  0.556-   4 1.92  46 1.92  20 1.92  82 1.96
 174  0.648  0.074  0.556-   6 1.92  45 1.92  56 1.92  82 1.96
 175  0.926  0.074  0.946-   1 1.91  25 1.93  60 1.93  83 1.94
 176  0.648  0.074  0.946-   5 1.91  49 1.93  59 1.93  83 1.94
 177  0.926  0.352  0.946-   3 1.91  48 1.93  23 1.93  83 1.94
 178  0.574  0.426  0.446-   8 1.91  63 1.93  28 1.93  84 1.94
 179  0.852  0.426  0.446-   4 1.91  52 1.93  62 1.93  84 1.94
 180  0.574  0.148  0.446-   6 1.91  51 1.93  26 1.93  84 1.94
 181  0.574  0.926  0.056-   5 1.92  43 1.92  30 1.92  85 1.96
 182  0.574  0.648  0.056-   7 1.92  55 1.92  29 1.92  85 1.96
 183  0.852  0.926  0.056-   1 1.92  54 1.92  41 1.92  85 1.96
 184  0.926  0.574  0.556-   4 1.92  33 1.92  46 1.92  86 1.96
 185  0.926  0.852  0.556-   2 1.92  58 1.92  32 1.92  86 1.96
 186  0.648  0.574  0.556-   8 1.92  57 1.92  44 1.92  86 1.96
 187  0.926  0.574  0.946-   3 1.91  37 1.93  48 1.93  87 1.94
 188  0.648  0.574  0.946-   7 1.91  61 1.93  47 1.93  87 1.94
 189  0.926  0.852  0.946-   1 1.91  60 1.93  35 1.93  87 1.94
 190  0.574  0.926  0.446-   6 1.91  51 1.93  40 1.93  88 1.94
 191  0.852  0.926  0.446-   2 1.91  64 1.93  50 1.93  88 1.94
 192  0.574  0.648  0.446-   8 1.91  63 1.93  38 1.93  88 1.94
 193  0.253  0.247  0.150- 243 1.89  19 1.91  18 1.91  65 2.93
 194  0.253  0.006  0.150- 247 1.89  17 1.91  19 1.91  65 2.93
 195  0.494  0.247  0.150- 251 1.89  17 1.91  18 1.91  65 2.93
 196  0.247  0.253  0.650- 244 1.89  21 1.91  22 1.91  66 2.93
 197  0.247  0.494  0.650- 248 1.89  20 1.91  22 1.91  66 2.93
 198  0.006  0.253  0.650- 252 1.89  20 1.91  21 1.91  66 2.93
 199  0.247  0.253  0.849- 241 1.90  25 1.94  24 1.94  66 2.55
 200  0.006  0.253  0.849- 249 1.90  23 1.94  25 1.94  66 2.55
 201  0.247  0.494  0.849- 245 1.90  23 1.94  24 1.94  66 2.55
 202  0.253  0.247  0.349- 242 1.90  27 1.94  28 1.94  65 2.55
 203  0.494  0.247  0.349- 250 1.90  26 1.94  28 1.94  65 2.55
 204  0.253  0.006  0.349- 246 1.90  26 1.94  27 1.94  65 2.55
 205  0.253  0.747  0.150- 247 1.89  31 1.91  30 1.91  67 2.93
 206  0.253  0.506  0.150- 243 1.89  29 1.91  31 1.91  67 2.93
 207  0.494  0.747  0.150- 255 1.89  29 1.91  30 1.91  67 2.93
 208  0.247  0.753  0.650- 248 1.89  34 1.91  33 1.91  68 2.93
 209  0.247  0.994  0.650- 244 1.89  32 1.91  34 1.91  68 2.93
 210  0.006  0.753  0.650- 256 1.89  32 1.91  33 1.91  68 2.93
 211  0.247  0.753  0.849- 245 1.90  36 1.94  37 1.94  68 2.55
 212  0.006  0.753  0.849- 253 1.90  35 1.94  37 1.94  68 2.55
 213  0.247  0.994  0.849- 241 1.90  35 1.94  36 1.94  68 2.55
 214  0.253  0.747  0.349- 246 1.90  39 1.94  40 1.94  67 2.55
 215  0.494  0.747  0.349- 254 1.90  38 1.94  40 1.94  67 2.55
 216  0.253  0.506  0.349- 242 1.90  38 1.94  39 1.94  67 2.55
 217  0.753  0.247  0.150- 251 1.89  42 1.91  43 1.91  69 2.93
 218  0.753  0.006  0.150- 255 1.89  41 1.91  43 1.91  69 2.93
 219  0.994  0.247  0.150- 243 1.89  41 1.91  42 1.91  69 2.93
 220  0.747  0.253  0.650- 252 1.89  46 1.91  45 1.91  70 2.93
 221  0.747  0.494  0.650- 256 1.89  44 1.91  46 1.91  70 2.93
 222  0.506  0.253  0.650- 244 1.89  44 1.91  45 1.91  70 2.93
 223  0.747  0.253  0.849- 249 1.90  48 1.94  49 1.94  70 2.55
 224  0.506  0.253  0.849- 241 1.90  47 1.94  49 1.94  70 2.55
 225  0.747  0.494  0.849- 253 1.90  47 1.94  48 1.94  70 2.55
 226  0.753  0.247  0.349- 250 1.90  52 1.94  51 1.94  69 2.55
 227  0.994  0.247  0.349- 242 1.90  50 1.94  52 1.94  69 2.55
 228  0.753  0.006  0.349- 254 1.90  50 1.94  51 1.94  69 2.55
 229  0.753  0.747  0.150- 255 1.89  54 1.91  55 1.91  71 2.93
 230  0.753  0.506  0.150- 251 1.89  53 1.91  55 1.91  71 2.93
 231  0.994  0.747  0.150- 247 1.89  53 1.91  54 1.91  71 2.93
 232  0.747  0.753  0.650- 256 1.89  58 1.91  57 1.91  72 2.93
 233  0.747  0.994  0.650- 252 1.89  56 1.91  58 1.91  72 2.93
 234  0.506  0.753  0.650- 248 1.89  56 1.91  57 1.91  72 2.93
 235  0.747  0.753  0.849- 253 1.90  60 1.94  61 1.94  72 2.55
 236  0.506  0.753  0.849- 245 1.90  59 1.94  61 1.94  72 2.55
 237  0.747  0.994  0.849- 249 1.90  59 1.94  60 1.94  72 2.55
 238  0.753  0.747  0.349- 254 1.90  64 1.94  63 1.94  71 2.55
 239  0.994  0.747  0.349- 246 1.90  62 1.94  64 1.94  71 2.55
 240  0.753  0.506  0.349- 250 1.90  62 1.94  63 1.94  71 2.55
 241  0.333  0.167  0.812- 224 1.90 213 1.90 199 1.90 124 2.08 125 2.08 126 2.08 244 2.82  66 3.51
                            70 3.51  68 3.51
 242  0.167  0.333  0.312- 216 1.90 227 1.90 202 1.90 121 2.08 123 2.08 122 2.08 243 2.82  65 3.51
                            67 3.51  69 3.51
 243  0.167  0.333  0.186- 206 1.89 219 1.89 193 1.89 123 2.09 122 2.09 121 2.09 242 2.82
 244  0.333  0.167  0.686- 222 1.89 209 1.89 196 1.89 125 2.09 126 2.09 124 2.09 241 2.82
 245  0.333  0.667  0.812- 201 1.90 236 1.90 211 1.90 130 2.08 132 2.08 131 2.08 248 2.82  68 3.51
                            66 3.51  72 3.51
 246  0.167  0.833  0.312- 204 1.90 239 1.90 214 1.90 127 2.08 129 2.08 128 2.08 247 2.82  67 3.51
                            65 3.51  71 3.51
 247  0.167  0.833  0.186- 194 1.89 231 1.89 205 1.89 129 2.09 128 2.09 127 2.09 246 2.82
 248  0.333  0.667  0.686- 197 1.89 234 1.89 208 1.89 132 2.09 131 2.09 130 2.09 245 2.82
 249  0.833  0.167  0.812- 237 1.90 200 1.90 223 1.90 136 2.08 138 2.08 137 2.08 252 2.82  70 3.51
                            72 3.51  66 3.51
 250  0.667  0.333  0.312- 240 1.90 203 1.90 226 1.90 133 2.08 134 2.08 135 2.08 251 2.82  69 3.51
                            71 3.51  65 3.51
 251  0.667  0.333  0.186- 230 1.89 195 1.89 217 1.89 134 2.09 135 2.09 133 2.09 250 2.82
 252  0.833  0.167  0.686- 233 1.89 198 1.89 220 1.89 138 2.09 137 2.09 136 2.09 249 2.82
 253  0.833  0.667  0.812- 225 1.90 212 1.90 235 1.90 142 2.08 144 2.08 143 2.08 256 2.82  72 3.51
                            70 3.51  68 3.51
 254  0.667  0.833  0.312- 215 1.90 228 1.90 238 1.90 139 2.08 140 2.08 141 2.08 255 2.82  71 3.51
                            67 3.51  69 3.51
 255  0.667  0.833  0.186- 207 1.89 218 1.89 229 1.89 140 2.09 141 2.09 139 2.09 254 2.82
 256  0.833  0.667  0.686- 221 1.89 210 1.89 232 1.89 144 2.09 143 2.09 142 2.09 253 2.82
 
  LATTYP: Found a hexagonal cell.
 ALAT       =    11.4574989423
 C/A-ratio  =     1.9554620348
  
  Lattice vectors:
  
 A1 = (  11.4574989423,   0.0000000000,   0.0000000000)
 A2 = (  -5.7287494712,   9.9224851479,   0.0000000000)
 A3 = (   0.0000000000,   0.0000000000,  22.4047041954)


Analysis of symmetry for initial positions (statically):
=====================================================================
 Subroutine PRICEL returns following result:
 
  LATTYP: Found a hexagonal cell.
 ALAT       =     5.7287501174
 C/A-ratio  =     3.9109236284
  
  Lattice vectors:
  
 A1 = (   5.7287498686,   0.0000000000,   0.0000000851)
 A2 = (  -2.8643751831,   4.9612433491,   0.0000000000)
 A3 = (   0.0000000000,   0.0000000000,  22.4047041954)
 
   4 primitive cells build up your supercell.
 

 Routine SETGRP: Setting up the symmetry group for a 
 hexagonal supercell.


 Subroutine GETGRP returns: Found  4 space group operations
 (whereof  2 operations were pure point group operations)
 out of a pool of 24 trial point group operations.


The static configuration has the point symmetry C_1h.
 The point group associated with its full space group is C_2v.


Analysis of symmetry for dynamics (positions and initial velocities):
=====================================================================
 Subroutine PRICEL returns following result:
 
  LATTYP: Found a hexagonal cell.
 ALAT       =     5.7287501174
 C/A-ratio  =     3.9109236284
  
  Lattice vectors:
  
 A1 = (   5.7287498686,   0.0000000000,   0.0000000851)
 A2 = (  -2.8643751831,   4.9612433491,   0.0000000000)
 A3 = (   0.0000000000,   0.0000000000,  22.4047041954)
 
   4 primitive cells build up your supercell.
 

 Routine SETGRP: Setting up the symmetry group for a 
 hexagonal supercell.


 Subroutine GETGRP returns: Found  4 space group operations
 (whereof  2 operations were pure point group operations)
 out of a pool of 24 trial point group operations.


The dynamic configuration has the point symmetry C_1h.
 The point group associated with its full space group is C_2v.


Analysis of structural, dynamic, and magnetic symmetry:
=====================================================================
 Subroutine PRICEL returns following result:
 
  LATTYP: Found a hexagonal cell.
 ALAT       =     5.7287501174
 C/A-ratio  =     3.9109236284
  
  Lattice vectors:
  
 A1 = (   5.7287498686,   0.0000000000,   0.0000000851)
 A2 = (  -2.8643751831,   4.9612433491,   0.0000000000)
 A3 = (   0.0000000000,   0.0000000000,  22.4047041954)
 
   4 primitive cells build up your supercell.
 

 Routine SETGRP: Setting up the symmetry group for a 
 hexagonal supercell.


 Subroutine GETGRP returns: Found  4 space group operations
 (whereof  2 operations were pure point group operations)
 out of a pool of 24 trial point group operations.


The magnetic configuration has the point symmetry C_1h.
 The point group associated with its full space group is C_2v.


 Subroutine INISYM returns: Found  4 space group operations
 (whereof  2 operations are pure point group operations),
 and found     4 'primitive' translations

 
 
 KPOINTS: KPOINTS file                            

Automatic generation of k-mesh.
Space group operators:
 irot       det(A)        alpha          n_x          n_y          n_z        tau_x        tau_y        tau_z
    1     1.000000     0.000001     1.000000     0.000000     0.000000     0.000000     0.000000     0.000000
    2    -1.000000   180.000000    -0.500000    -0.866025     0.000000     0.000000     0.000000     0.000000
    3     1.000000   180.000000     0.000000     0.000000     1.000000     0.000000     0.000000     0.500000
    4    -1.000000   180.000000     0.866025    -0.500000     0.000000     0.000000     0.000000     0.500000
 
 Subroutine IBZKPT returns following result:
 ===========================================
 
 Found     14 irreducible k-points:
 
 Following reciprocal coordinates:
            Coordinates               Weight
  0.000000  0.000000  0.000000      1.000000
  0.250000  0.000000  0.000000      4.000000
  0.500000  0.000000  0.000000      2.000000
  0.250000  0.250000  0.000000      2.000000
  0.500000  0.250000  0.000000      4.000000
 -0.250000  0.250000  0.000000      2.000000
  0.500000  0.500000  0.000000      1.000000
  0.000000  0.000000  0.500000      1.000000
  0.250000  0.000000  0.500000      4.000000
  0.500000  0.000000  0.500000      2.000000
  0.250000  0.250000  0.500000      2.000000
  0.500000  0.250000  0.500000      4.000000
 -0.250000  0.250000  0.500000      2.000000
  0.500000  0.500000  0.500000      1.000000
 
 Following cartesian coordinates:
            Coordinates               Weight
  0.000000  0.000000  0.000000      1.000000
  0.021820  0.012598  0.000000      4.000000
  0.043640  0.025195  0.000000      2.000000
  0.021820  0.037793  0.000000      2.000000
  0.043640  0.050391  0.000000      4.000000
 -0.021820  0.012598  0.000000      2.000000
  0.043640  0.075586  0.000000      1.000000
  0.000000  0.000000  0.022317      1.000000
  0.021820  0.012598  0.022317      4.000000
  0.043640  0.025195  0.022317      2.000000
  0.021820  0.037793  0.022317      2.000000
  0.043640  0.050391  0.022317      4.000000
 -0.021820  0.012598  0.022317      2.000000
  0.043640  0.075586  0.022317      1.000000
 
 TETIRR: Found     48 inequivalent tetrahedra from      192


--------------------------------------------------------------------------------------------------------




 Dimension of arrays:
   k-points           NKPTS =     14   k-points in BZ     NKDIM =     14   number of bands    NBANDS=    890
   number of dos      NEDOS =    301   number of ions     NIONS =    256
   non local maximal  LDIM  =      6   non local SUM 2l+1 LMDIM =     18
   total plane-waves  NPLWV = 960000
   max r-space proj   IRMAX =      1   max aug-charges    IRDMAX=  26597
   dimension x,y,z NGX =    80 NGY =   80 NGZ =  150
   dimension x,y,z NGXF=   160 NGYF=  160 NGZF=  300
   support grid    NGXF=   160 NGYF=  160 NGZF=  300
   ions per type =              64   8  16 152  16
   NGX,Y,Z   is equivalent  to a cutoff of  11.61, 11.61, 11.13 a.u.
   NGXF,Y,Z  is equivalent  to a cutoff of  23.22, 23.22, 22.26 a.u.

 SYSTEM =  Hibonite                                
 POSCAR =  supercell generated structure. e_col = 0

 Startparameter for this run:
   NWRITE =      2    write-flag & timer
   PREC   = accura    normal or accurate (medium, high low for compatibility)
   ISTART =      0    job   : 0-new  1-cont  2-samecut
   ICHARG =      2    charge: 1-file 2-atom 10-const
   ISPIN  =      2    spin polarized calculation?
   LNONCOLLINEAR =      F non collinear calculations
   LSORBIT =      F    spin-orbit coupling
   INIWAV =      1    electr: 0-lowe 1-rand  2-diag
   LASPH  =      F    aspherical Exc in radial PAW
   METAGGA=      F    non-selfconsistent MetaGGA calc.

 Electronic Relaxation 1
   ENCUT  =  400.0 eV  29.40 Ry    5.42 a.u.  18.68 18.68 36.54*2*pi/ulx,y,z
   ENINI  =  400.0     initial cutoff
   ENAUG  =  605.4 eV  augmentation charge cutoff
   NELM   =     60;   NELMIN=  2; NELMDL= -5     # of ELM steps 
   EDIFF  = 0.1E-06   stopping-criterion for ELM
   LREAL  =      F    real-space projection
   NLSPLINE    = F    spline interpolate recip. space projectors
   LCOMPAT=      F    compatible to vasp.4.4
   GGA_COMPAT  = T    GGA compatible to vasp.4.4-vasp.4.6
   LMAXPAW     = -100 max onsite density
   LMAXMIX     =    2 max onsite mixed and CHGCAR
   VOSKOWN=      1    Vosko Wilk Nusair interpolation
   ROPT   =    0.00000   0.00000   0.00000   0.00000
   ROPT   =    0.00000
 Ionic relaxation
   EDIFFG = 0.1E-05   stopping-criterion for IOM
   NSW    =      0    number of steps for IOM
   NBLOCK =      1;   KBLOCK =      1    inner block; outer block 
   IBRION =     -1    ionic relax: 0-MD 1-quasi-New 2-CG
   NFREE  =      0    steps in history (QN), initial steepest desc. (CG)
   ISIF   =      2    stress and relaxation
   IWAVPR =     10    prediction:  0-non 1-charg 2-wave 3-comb
   ISYM   =      2    0-nonsym 1-usesym 2-fastsym
   LCORR  =      T    Harris-Foulkes like correction to forces

   POTIM  = 0.5000    time-step for ionic-motion
   TEIN   =    0.0    initial temperature
   TEBEG  =    0.0;   TEEND  =   0.0 temperature during run
   SMASS  =  -3.00    Nose mass-parameter (am)
   estimated Nose-frequenzy (Omega)   =  0.10E-29 period in steps =****** mass=  -0.300E-26a.u.
   SCALEE = 1.0000    scale energy and forces
   NPACO  =    256;   APACO  = 16.0  distance and # of slots for P.C.
   PSTRESS=    0.0 pullay stress

  Mass of Ions in am
   POMASS =  26.98 40.08 24.30 16.00 47.88
  Ionic Valenz
   ZVAL   =   3.00  8.00  2.00  6.00  4.00
  Atomic Wigner-Seitz radii
   RWIGS  =  -1.00 -1.00 -1.00 -1.00 -1.00
  virtual crystal weights 
   VCA    =   1.00  1.00  1.00  1.00  1.00
   NELECT =    1264.0000    total number of electrons
   NUPDOWN=      -1.0000    fix difference up-down

 DOS related values:
   EMIN   =  10.00;   EMAX   =-10.00  energy-range for DOS
   EFERMI =   0.00
   ISMEAR =    -5;   SIGMA  =   0.20  broadening in eV -4-tet -1-fermi 0-gaus

 Electronic relaxation 2 (details)
   IALGO  =     38    algorithm
   LDIAG  =      T    sub-space diagonalisation (order eigenvalues)
   LSUBROT=      F    optimize rotation matrix (better conditioning)
   TURBO    =      0    0=normal 1=particle mesh
   IRESTART =      0    0=no restart 2=restart with 2 vectors
   NREBOOT  =      0    no. of reboots
   NMIN     =      0    reboot dimension
   EREF     =   0.00    reference energy to select bands
   IMIX   =      4    mixing-type and parameters
     AMIX     =   0.40;   BMIX     =  1.00
     AMIX_MAG =   1.60;   BMIX_MAG =  1.00
     AMIN     =   0.10
     WC   =   100.;   INIMIX=   1;  MIXPRE=   1;  MAXMIX= -45

 Intra band minimization:
   WEIMIN = 0.0000     energy-eigenvalue tresh-hold
   EBREAK =  0.28E-10  absolut break condition
   DEPER  =   0.30     relativ break condition  

   TIME   =   0.40     timestep for ELM

  volume/ion in A,a.u.               =       9.95        67.14
  Fermi-wavevector in a.u.,A,eV,Ry     =   1.296107  2.449286 22.856319  1.679892
  Thomas-Fermi vector in A             =   2.427584
 
 Write flags
   LWAVE        =      F    write WAVECAR
   LDOWNSAMPLE  =      F    k-point downsampling of WAVECAR
   LCHARG       =      F    write CHGCAR
   LVTOT        =      F    write LOCPOT, total local potential
   LVHAR        =      F    write LOCPOT, Hartree potential only
   LELF         =      F    write electronic localiz. function (ELF)
   LORBIT       =     11    0 simple, 1 ext, 2 COOP (PROOUT), +10 PAW based schemes


 Dipole corrections
   LMONO  =      F    monopole corrections only (constant potential shift)
   LDIPOL =      F    correct potential (dipole corrections)
   IDIPOL =      0    1-x, 2-y, 3-z, 4-all directions 
   EPSILON=  1.0000000 bulk dielectric constant

 Exchange correlation treatment:
   GGA     =    --    GGA type
   LEXCH   =     8    internal setting for exchange type
   VOSKOWN=      1    Vosko Wilk Nusair interpolation
   LHFCALC =     F    Hartree Fock is set to
   LHFONE  =     F    Hartree Fock one center treatment
   AEXX    =    0.0000 exact exchange contribution

 Linear response parameters
   LEPSILON=     F    determine dielectric tensor
   LRPA    =     F    only Hartree local field effects (RPA)
   LNABLA  =     F    use nabla operator in PAW spheres
   LVEL    =     F    velocity operator in full k-point grid
   LINTERFAST=   F  fast interpolation
   KINTER  =     0    interpolate to denser k-point grid
   CSHIFT  =0.1000    complex shift for real part using Kramers Kronig
   OMEGAMAX=  -1.0    maximum frequency
   DEG_THRESHOLD= 0.2000000E-02 threshold for treating states as degnerate
   RTIME   =   -0.100 relaxation time in fs
  (WPLASMAI=    0.000 imaginary part of plasma frequency in eV, 0.658/RTIME)
   DFIELD  = 0.0000000 0.0000000 0.0000000 field for delta impulse in time
 
 Orbital magnetization related:
   ORBITALMAG=     F  switch on orbital magnetization
   LCHIMAG   =     F  perturbation theory with respect to B field
   DQ        =  0.001000  dq finite difference perturbation B field
   LLRAUG    =     F  two centre corrections for induced B field



--------------------------------------------------------------------------------------------------------


 Static calculation
 charge density and potential will be updated during run
 spin polarized calculation
 Variant of blocked Davidson
 Davidson routine will perform the subspace rotation
 perform sub-space diagonalisation
    after iterative eigenvector-optimisation
 modified Broyden-mixing scheme, WC =      100.0
 initial mixing is a Kerker type mixing with AMIX =  0.4000 and BMIX =      1.0000
 Hartree-type preconditioning will be used
 using additional bands          258
 reciprocal scheme for non local part
 use partial core corrections
 calculate Harris-corrections to forces 
   (improved forces if not selfconsistent)
 use gradient corrections 
 use of overlap-Matrix (Vanderbilt PP)
 Fermi weights with tetrahedron method with Bloechl corrections


--------------------------------------------------------------------------------------------------------


  energy-cutoff  :      400.00
  volume of cell :     2547.12
      direct lattice vectors                 reciprocal lattice vectors
    11.457498942  0.000000000  0.000000000     0.087279083  0.050390602  0.000000000
    -5.728749471  9.922485148  0.000000000     0.000000000  0.100781204  0.000000000
     0.000000000  0.000000000 22.404704195     0.000000000  0.000000000  0.044633484

  length of vectors
    11.457498942 11.457498942 22.404704195     0.100781204  0.100781204  0.044633484


 
 k-points in units of 2pi/SCALE and weight: KPOINTS file                            
   0.00000000  0.00000000  0.00000000       0.031
   0.02181977  0.01259765  0.00000000       0.125
   0.04363954  0.02519530  0.00000000       0.062
   0.02181977  0.03779295  0.00000000       0.062
   0.04363954  0.05039060  0.00000000       0.125
  -0.02181977  0.01259765  0.00000000       0.062
   0.04363954  0.07558590  0.00000000       0.031
   0.00000000  0.00000000  0.02231674       0.031
   0.02181977  0.01259765  0.02231674       0.125
   0.04363954  0.02519530  0.02231674       0.062
   0.02181977  0.03779295  0.02231674       0.062
   0.04363954  0.05039060  0.02231674       0.125
  -0.02181977  0.01259765  0.02231674       0.062
   0.04363954  0.07558590  0.02231674       0.031
 
 k-points in reciprocal lattice and weights: KPOINTS file                            
   0.00000000  0.00000000  0.00000000       0.031
   0.25000000  0.00000000  0.00000000       0.125
   0.50000000  0.00000000  0.00000000       0.062
   0.25000000  0.25000000  0.00000000       0.062
   0.50000000  0.25000000  0.00000000       0.125
  -0.25000000  0.25000000  0.00000000       0.062
   0.50000000  0.50000000  0.00000000       0.031
   0.00000000  0.00000000  0.50000000       0.031
   0.25000000  0.00000000  0.50000000       0.125
   0.50000000  0.00000000  0.50000000       0.062
   0.25000000  0.25000000  0.50000000       0.062
   0.50000000  0.25000000  0.50000000       0.125
  -0.25000000  0.25000000  0.50000000       0.062
   0.50000000  0.50000000  0.50000000       0.031
 
 position of ions in fractional coordinates (direct lattice) 
   0.00000211  0.99999789  0.00032628
   0.99999789  0.00000211  0.50032628
   0.00000212  0.49999789  0.00032629
   0.99999788  0.50000210  0.50032629
   0.50000211  0.99999788  0.00032629
   0.49999789  0.00000212  0.50032629
   0.50000211  0.49999789  0.00032629
   0.49999789  0.50000211  0.50032629
   0.99999861  0.00000139  0.23856119
   0.00000139  0.99999861  0.73856117
   0.99999871  0.50000152  0.23856118
   0.00000129  0.49999847  0.73856116
   0.49999847  0.00000129  0.23856118
   0.50000153  0.99999871  0.73856116
   0.49999854  0.50000146  0.23856118
   0.50000146  0.49999854  0.73856115
   0.41673845  0.08326152  0.10504862
   0.41673848  0.33347034  0.10504806
   0.16652986  0.08326160  0.10504804
   0.08326152  0.41673848  0.60504865
   0.08326160  0.16652986  0.60504807
   0.33347035  0.41673851  0.60504808
   0.08179602  0.41820398  0.89498958
   0.33641343  0.41820340  0.89499211
   0.08179670  0.16358676  0.89499212
   0.41820396  0.08179601  0.39498953
   0.16358676  0.08179670  0.39499208
   0.41820338  0.33641342  0.39499206
   0.41673841  0.58326156  0.10504866
   0.41673837  0.83347008  0.10504809
   0.16652990  0.58326162  0.10504809
   0.08326152  0.91673842  0.60504862
   0.08326147  0.66652964  0.60504805
   0.33347036  0.91673847  0.60504805
   0.08179602  0.91820393  0.89498961
   0.33641344  0.91820336  0.89499213
   0.08179659  0.66358657  0.89499213
   0.41820392  0.58179605  0.39498950
   0.16358679  0.58179672  0.39499204
   0.41820328  0.83641319  0.39499204
   0.91673845  0.08326152  0.10504859
   0.91673850  0.33347038  0.10504803
   0.66652963  0.08326147  0.10504803
   0.58326159  0.41673844  0.60504869
   0.58326163  0.16652991  0.60504811
   0.83347006  0.41673837  0.60504811
   0.58179608  0.41820395  0.89498955
   0.83641317  0.41820328  0.89499208
   0.58179672  0.16358680  0.89499208
   0.91820395  0.08179602  0.39498956
   0.66358656  0.08179659  0.39499209
   0.91820338  0.33641345  0.39499209
   0.91673845  0.58326151  0.10504862
   0.91673840  0.83347013  0.10504804
   0.66652967  0.58326148  0.10504806
   0.58326152  0.91673843  0.60504865
   0.58326150  0.66652968  0.60504808
   0.83347008  0.91673834  0.60504807
   0.58179602  0.91820393  0.89498958
   0.83641318  0.91820325  0.89499212
   0.58179661  0.66358660  0.89499211
   0.91820395  0.58179601  0.39498953
   0.66358658  0.58179659  0.39499206
   0.91820330  0.83641324  0.39499208
   0.33329114  0.16670888  0.25987654
   0.16670889  0.33329116  0.75987659
   0.33329116  0.66670884  0.25987654
   0.16670893  0.83329108  0.75987659
   0.83329100  0.16670890  0.25987655
   0.66670885  0.33329118  0.75987658
   0.83329107  0.66670885  0.25987654
   0.66670889  0.83329110  0.75987659
   0.16666850  0.33333163  0.02596047
   0.33333161  0.16666850  0.52596047
   0.33333499  0.16666511  0.97404912
   0.16666511  0.33333501  0.47404912
   0.16666847  0.83333153  0.02596049
   0.33333156  0.66666845  0.52596045
   0.33333494  0.66666506  0.97404916
   0.16666508  0.83333492  0.47404910
   0.66666845  0.33333157  0.02596045
   0.83333146  0.16666845  0.52596049
   0.83333484  0.16666506  0.97404910
   0.66666507  0.33333496  0.47404916
   0.66666842  0.83333148  0.02596047
   0.83333145  0.66666839  0.52596047
   0.83333484  0.66666500  0.97404912
   0.66666504  0.83333487  0.47404912
   0.00000155  0.99999845  0.15321530
   0.99999845  0.00000155  0.65321528
   0.00000102  0.99999898  0.85047773
   0.99999898  0.00000102  0.35047766
   0.00000151  0.49999839  0.15321528
   0.99999848  0.50000160  0.65321525
   0.00000106  0.49999903  0.85047775
   0.99999893  0.50000096  0.35047768
   0.50000161  0.99999848  0.15321528
   0.49999839  0.00000152  0.65321525
   0.50000096  0.99999894  0.85047775
   0.49999904  0.00000106  0.35047768
   0.50000158  0.49999841  0.15321526
   0.49999841  0.50000158  0.65321524
   0.50000099  0.49999901  0.85047776
   0.49999901  0.50000099  0.35047770
   0.16666756  0.33333239  0.93757339
   0.33333237  0.16666755  0.43757339
   0.33333594  0.16666397  0.06193113
   0.16666398  0.33333596  0.56193111
   0.16666758  0.83333243  0.93757336
   0.33333239  0.66666761  0.43757344
   0.33333596  0.66666404  0.06193106
   0.16666400  0.83333600  0.56193115
   0.66666762  0.33333241  0.93757344
   0.83333235  0.16666756  0.43757336
   0.83333592  0.16666398  0.06193117
   0.66666405  0.33333598  0.56193104
   0.66666766  0.83333243  0.93757339
   0.83333240  0.66666763  0.43757339
   0.83333598  0.66666406  0.06193113
   0.66666410  0.83333601  0.56193111
   0.08930739  0.41069254  0.24948306
   0.08933231  0.17861119  0.24948417
   0.32138857  0.41066756  0.24948417
   0.41069253  0.08930738  0.74948299
   0.41066754  0.32138856  0.74948411
   0.17861118  0.08933229  0.74948410
   0.08930731  0.91069267  0.24948305
   0.08933231  0.67861128  0.24948417
   0.32138869  0.91066767  0.24948417
   0.41069249  0.58930747  0.74948300
   0.41066756  0.82138864  0.74948411
   0.17861138  0.58933240  0.74948411
   0.58930749  0.41069250  0.24948306
   0.58933241  0.17861139  0.24948417
   0.82138865  0.41066757  0.24948417
   0.91069269  0.08930732  0.74948299
   0.91066768  0.32138869  0.74948410
   0.67861131  0.08933233  0.74948410
   0.58930742  0.91069261  0.24948306
   0.58933240  0.67861141  0.24948417
   0.82138882  0.91066770  0.24948417
   0.91069262  0.58930743  0.74948299
   0.91066772  0.82138884  0.74948410
   0.67861143  0.58933241  0.74948411
   0.07382554  0.42617434  0.05558771
   0.07382573  0.14764501  0.05558725
   0.35235490  0.42617418  0.05558723
   0.42617433  0.07382555  0.55558769
   0.42617418  0.35235489  0.55558721
   0.14764502  0.07382573  0.55558724
   0.42577437  0.07422554  0.94612156
   0.14845580  0.07422460  0.94612159
   0.42577532  0.35154410  0.94612162
   0.07422553  0.42577439  0.44612156
   0.35154411  0.42577532  0.44612162
   0.07422460  0.14845579  0.44612159
   0.07382557  0.92617439  0.05558771
   0.07382573  0.64764503  0.05558723
   0.35235490  0.92617424  0.05558723
   0.42617439  0.57382561  0.55558770
   0.42617422  0.85235494  0.55558724
   0.14764505  0.57382578  0.55558724
   0.42577442  0.57422558  0.94612156
   0.14845583  0.57422464  0.94612160
   0.42577536  0.85154417  0.94612160
   0.07422554  0.92577442  0.44612156
   0.35154411  0.92577536  0.44612162
   0.07422461  0.64845582  0.44612162
   0.57382558  0.42617439  0.05558771
   0.57382578  0.14764505  0.05558725
   0.85235498  0.42617422  0.05558725
   0.92617447  0.07382560  0.55558770
   0.92617429  0.35235491  0.55558722
   0.64764506  0.07382575  0.55558722
   0.92577450  0.07422557  0.94612156
   0.64845585  0.07422463  0.94612162
   0.92577541  0.35154412  0.94612162
   0.57422555  0.42577442  0.44612156
   0.85154420  0.42577536  0.44612160
   0.57422464  0.14845583  0.44612160
   0.57382562  0.92617444  0.05558771
   0.57382579  0.64764505  0.05558723
   0.85235497  0.92617426  0.05558725
   0.92617447  0.57382565  0.55558769
   0.92617431  0.85235498  0.55558724
   0.64764508  0.57382581  0.55558721
   0.92577449  0.57422561  0.94612156
   0.64845587  0.57422468  0.94612162
   0.92577544  0.85154420  0.94612159
   0.57422558  0.92577446  0.44612156
   0.85154419  0.92577539  0.44612159
   0.57422465  0.64845584  0.44612162
   0.25289931  0.24710058  0.15000955
   0.25289863  0.00578935  0.15001089
   0.49421077  0.24710136  0.15001092
   0.24710058  0.25289931  0.65000952
   0.24710136  0.49421074  0.65001089
   0.00578936  0.25289863  0.65001086
   0.24682762  0.25317229  0.84899722
   0.00635593  0.25317490  0.84899223
   0.24682509  0.49364415  0.84899221
   0.25317228  0.24682762  0.34899718
   0.49364418  0.24682509  0.34899216
   0.25317490  0.00635592  0.34899219
   0.25289921  0.74710076  0.15000961
   0.25289847  0.50578900  0.15001097
   0.49421098  0.74710152  0.15001097
   0.24710060  0.75289942  0.65000950
   0.24710119  0.99421042  0.65001083
   0.00578954  0.75289878  0.65001083
   0.24682765  0.75317237  0.84899724
   0.00635608  0.75317502  0.84899225
   0.24682495  0.99364389  0.84899225
   0.25317221  0.74682776  0.34899714
   0.49364433  0.74682522  0.34899213
   0.25317478  0.50635564  0.34899213
   0.75289940  0.24710057  0.15000953
   0.75289874  0.00578952  0.15001086
   0.99421050  0.24710122  0.15001086
   0.74710083  0.25289923  0.65000957
   0.74710157  0.49421100  0.65001094
   0.50578902  0.25289847  0.65001094
   0.74682783  0.25317223  0.84899719
   0.50635566  0.25317478  0.84899218
   0.74682526  0.49364435  0.84899218
   0.75317235  0.24682762  0.34899720
   0.99364396  0.24682498  0.34899221
   0.75317498  0.00635605  0.34899221
   0.75289935  0.74710068  0.15000955
   0.75289859  0.50578925  0.15001092
   0.99421062  0.74710136  0.15001089
   0.74710075  0.75289941  0.65000952
   0.74710138  0.99421058  0.65001086
   0.50578927  0.75289863  0.65001089
   0.74682778  0.75317237  0.84899722
   0.50635586  0.75317490  0.84899221
   0.74682511  0.99364402  0.84899223
   0.75317231  0.74682771  0.34899718
   0.99364405  0.74682509  0.34899219
   0.75317486  0.50635584  0.34899216
   0.33333854  0.16666220  0.81221780
   0.16666221  0.33333856  0.31221780
   0.16666938  0.33333153  0.18626136
   0.33333151  0.16666938  0.68626134
   0.33333823  0.66666177  0.81221778
   0.16666202  0.83333799  0.31221781
   0.16666915  0.83333086  0.18626134
   0.33333114  0.66666886  0.68626136
   0.83333791  0.16666199  0.81221781
   0.66666178  0.33333825  0.31221778
   0.66666887  0.33333116  0.18626138
   0.83333078  0.16666912  0.68626132
   0.83333775  0.66666146  0.81221780
   0.66666149  0.83333778  0.31221780
   0.66666852  0.83333060  0.18626136
   0.83333057  0.66666849  0.68626134
 
 position of ions in cartesian coordinates  (Angst):
  -5.72871317  9.92246419  0.00731031
  11.45746264  0.00002096 11.20966241
  -2.86433842  4.96122165  0.00731043
   8.59308788  4.96126344 11.20966253
   0.00003626  9.92246414  0.00731043
   5.72871322  0.00002101 11.20966253
   2.86441097  4.96122162  0.00731051
   2.86433849  4.96126347 11.20966261
  11.45747505  0.00001379  5.34489298
  -5.72872558  9.92247135 16.54724459
   8.59310068  4.96125770  5.34489274
  -2.86435122  4.96122738 16.54724435
   5.72872458  0.00001279  5.34489274
   0.00002489  9.92247236 16.54724435
   2.86434966  4.96125702  5.34489257
   2.86439980  4.96122807 16.54724418
   4.29779602  0.82616116  2.35358335
   2.86441270  3.30885451  2.35357066
   1.43103084  0.82616198  2.35357036
  -1.43342153  4.13508138 13.55593594
  -0.00003818  1.65239008 13.55592295
   1.43334567  4.13508171 13.55592325
  -1.45860802  4.14962283 20.05197677
   1.45867404  4.14961707 20.05203339
   0.00003802  1.62318718 20.05203369
   4.32298253  0.81161974  8.84962369
   1.40570229  0.81162652  8.84968061
   2.86433651  3.33805720  8.84968030
   1.43342053  5.78740414  2.35358423
   0.00003816  8.27009449  2.35357132
  -1.43334358  5.78740480  2.35357132
  -4.29779595  9.09632339 13.55593525
  -2.86441311  6.61363048 13.55592262
  -1.43102872  9.09632387 13.55592262
  -4.32298243  9.11086482 20.05197737
  -1.40570039  9.11085917 20.05203395
  -2.86433689  6.58442785 20.05203395
   1.45860716  5.77286263  8.84962293
  -1.45867219  5.77286928  8.84967975
  -0.00003802  8.29929747  8.84967975
  10.02654543  0.82616120  2.35358266
   8.59316210  3.30885486  2.35357003
   7.15977844  0.82616073  2.35357003
   4.29532894  4.13508095 13.55593682
   5.72871131  1.65239059 13.55592391
   7.16209256  4.13508029 13.55592391
   4.27014231  4.14962246 20.05197602
   7.18742117  4.14961581 20.05203283
   5.72878750  1.62318762 20.05203283
  10.05173191  0.81161977  8.84962429
   7.13445011  0.81162542  8.84968087
   8.59308588  3.33805749  8.84968087
   7.16217075  5.78740371  2.35358335
   5.72878765  8.27009500  2.35357036
   4.29540404  5.78740338  2.35357066
   1.43095346  9.09632343 13.55593594
   2.86433652  6.61363082 13.55592325
   4.29771826  9.09632261 13.55592295
   1.40576695  9.11086485 20.05197677
   4.32304682  9.11085807 20.05203369
   2.86441271  6.58442814 20.05203339
   7.18735724  5.77286226  8.84962369
   4.27007567  5.77286802  8.84968030
   5.72871145  8.29929791  8.84968061
   2.86364950  1.65416639  5.82245707
   0.00072532  3.30707662 17.02481015
  -0.00072477  6.61540856  5.82245701
  -2.86364850  8.26831836 17.02481024
   8.59239724  1.65416660  5.82245716
   5.72947424  3.30707677 17.02481009
   5.72802355  6.61540871  5.82245707
   2.86510046  8.26831857 17.02481015
   0.00003080  3.30747814  0.58163669
   2.86434449  1.65376568 11.78398878
   2.86440269  1.65373205 21.82328251
  -0.00002743  3.30751173 10.62093041
  -2.86434374  8.26871976  0.58163705
  -0.00003056  6.61500776 11.78398823
   0.00002765  6.61497415 21.82328324
  -2.86440197  8.26875338 10.62092993
   5.72878003  3.30747757  0.58163614
   8.59309248  1.65376520 11.78398914
   8.59315071  1.65373158 21.82328203
   5.72872182  3.30751118 10.62093114
   2.86440547  8.26871927  0.58163669
   5.72871806  6.61500718 11.78398878
   5.72877630  6.61497360 21.82328251
   2.86434727  8.26875291 10.62093041
  -5.72872283  9.92246976  3.43274343
  11.45747230  0.00001538 14.63509504
  -5.72873186  9.92247498 19.05470189
  11.45748133  0.00001017  7.85234832
  -2.86434817  4.96122659  3.43274294
   8.59309763  4.96125849 14.63509454
  -2.86435702  4.96123297 19.05470237
   8.59310648  4.96125212  7.85234879
   0.00002710  9.92247011  3.43274294
   5.72872237  0.00001504 14.63509454
   0.00001715  9.92247458 19.05470237
   5.72873232  0.00001056  7.85234879
   2.86440198  4.96122681  3.43274260
   2.86434748  4.96125828 14.63509420
   2.86439175  4.96123272 19.05470269
   2.86435771  4.96125237  7.85234912
   0.00001564  3.30748568 21.00605443
   2.86435860  1.65375633  9.80370234
   2.86441998  1.65372081  1.38754854
  -0.00004581  3.30752108 12.58990028
  -2.86435907  8.26872861 21.00605370
  -0.00001622  6.61499948  9.80370347
   0.00004516  6.61496404  1.38754710
  -2.86442054  8.26876410 12.58990123
   5.72876569  3.30748585 21.00605557
   8.59310781  1.65375635  9.80370160
   8.59316929  1.65372086  1.38754949
   5.72870431  3.30752129 12.58989884
   2.86439136  8.26872863 21.00605443
   5.72873322  6.61499965  9.80370234
   5.72879467  6.61496424  1.38754854
   2.86432998  8.26876415 12.58990028
  -1.32951531  4.07509065  5.58959411
   0.00030605  1.77226686  5.58961892
   1.32969768  4.07484273  5.58961913
   4.19388965  0.88615118 16.79194473
   2.86406839  3.18897324 16.79196975
   1.53467503  0.88639835 16.79196954
  -4.19389177  9.03633453  5.58959396
  -2.86406919  6.73351035  5.58961901
  -1.53467636  9.03608641  5.58961901
   1.32951394  5.84739460 16.79194485
  -0.00030655  8.15021659 16.79196971
  -1.32969803  5.84764202 16.79196971
   4.39923553  4.07509025  5.58959423
   5.72905554  1.77226887  5.58961909
   7.05844799  4.07484283  5.58961909
   9.92264124  0.88615055 16.79194458
   8.59281867  3.18897449 16.79196963
   7.26342583  0.88639868 16.79196963
   1.53485934  9.03633390  5.58959411
   2.86468060  6.73351160  5.58961913
   4.19407444  9.03608674  5.58961892
   7.05826515  5.84739420 16.79194473
   5.72844354  8.15021860 16.79196954
   4.39905203  5.84764212 16.79196975
  -1.59558995  4.22870860  1.24542611
   0.00003697  1.46500542  1.24541597
   1.59566074  4.22870697  1.24541535
   4.45996386  0.73253293 12.44777796
   2.86433734  3.49623615 12.44776720
   1.26871350  0.73253473 12.44776782
   4.45308995  0.73650177 21.19757379
   1.27571799  0.73649253 21.19757446
   2.86441219  3.48819113 21.19757497
  -1.58871588  4.22474004  9.99522170
   1.58865612  4.22474927  9.99522288
  -0.00003772  1.47305039  9.99522237
  -4.45996461  9.18995164  1.24542629
  -2.86433792  6.42624820  1.24541541
  -1.26871432  9.18995014  1.24541541
   1.59558949  5.69377608 12.44777799
  -0.00003729  8.45747928 12.44776771
  -1.59566107  5.69377774 12.44776771
   1.58871552  5.69774476 21.19757371
  -1.58865653  5.69773541 21.19757450
   0.00003754  8.44943433 21.19757450
  -4.45309063  9.18598294  9.99522160
  -1.27571886  9.18599227  9.99522284
  -2.86441258  6.43429324  9.99522284
   4.13315974  4.22870901  1.24542614
   5.72878676  1.46500581  1.24541586
   7.32441090  4.22870735  1.24541586
  10.18871458  0.73253345 12.44777814
   8.59308789  3.49623639 12.44776726
   6.99746330  0.73253495 12.44776726
  10.18184059  0.73650215 21.19757370
   7.00446784  0.73649282 21.19757494
   8.59316254  3.48819135 21.19757494
   4.14003371  4.22474032  9.99522161
   7.31740636  4.22474968  9.99522240
   5.72871193  1.47305076  9.99522240
   1.26878512  9.18995216  1.24542611
   2.86441213  6.42624844  1.24541535
   4.46003586  9.18995036  1.24541597
   7.32433966  5.69377648 12.44777796
   5.72871299  8.45747967 12.44776782
   4.13308849  5.69377812 12.44776720
   7.31746559  5.69774504 21.19757379
   4.14009311  5.69773582 21.19757497
   5.72878769  8.44943470 21.19757446
   1.27565903  9.18598332  9.99522170
   4.45303137  9.18599256  9.99522237
   2.86433729  6.43429347  9.99522288
   1.48201623  2.45185184  3.36091971
   2.86442004  0.05744479  3.36094973
   4.24683759  2.45185958  3.36095037
   1.38235789  2.50938964 14.56327106
  -0.00004596  4.90379877 14.56330173
  -1.38246136  2.50938293 14.56330109
   1.37766666  2.51209824 19.02153167
  -1.37755258  2.51212420 19.02141987
   0.00003454  4.89817674 19.02141928
   1.48670757  2.44914341  7.81917859
   4.24192852  2.44911828  7.81906620
   2.86433966  0.06306655  7.81906679
  -1.38236067  7.41309621  3.36092086
   0.00004550  5.01868380  3.36095139
   1.38246431  7.41310378  3.36095139
  -1.48201735  7.47063333 14.56327049
  -2.86442079  9.86503814 14.56330041
  -4.24683483  7.47062693 14.56330041
  -1.48670830  7.47334165 19.02153208
  -4.24192625  7.47336792 19.02142031
  -2.86434027  9.85941669 19.02142031
  -1.37766881  7.41038736  7.81917771
   1.37755484  7.41036213  7.81906553
  -0.00003489  5.02430635  7.81906553
   7.21076682  2.45185176  3.36091913
   8.59316977  0.05744640  3.36094905
   9.97558479  2.45185816  3.36094905
   7.11111064  2.50938888 14.56327222
   5.72870446  4.90380129 14.56330274
   4.34628516  2.50938131 14.56330274
   7.10641878  2.51209773 19.02153080
   4.35119463  2.51212296 19.02141862
   5.72878485  4.89817874 19.02141862
   7.21545777  2.44914344  7.81917900
   9.97067621  2.44911717  7.81906722
   8.59308925  0.06306785  7.81906722
   4.34639084  7.41309545  3.36091971
   5.72879494  5.01868632  3.36095037
[...]
   81        0.160   0.174   0.000   0.334
   82        0.160   0.174   0.000   0.334
   83        0.164   0.183   0.000   0.347
   84        0.164   0.183   0.000   0.347
   85        0.160   0.174   0.000   0.334
   86        0.160   0.174   0.000   0.334
   87        0.164   0.183   0.000   0.347
   88        0.164   0.183   0.000   0.347
   89        1.570   3.604   0.000   5.174
   90        1.570   3.604   0.000   5.174
   91        1.574   3.580   0.000   5.155
   92        1.574   3.580   0.000   5.155
   93        1.570   3.604   0.000   5.174
   94        1.570   3.604   0.000   5.174
   95        1.574   3.580   0.000   5.155
   96        1.574   3.580   0.000   5.155
   97        1.570   3.604   0.000   5.174
   98        1.570   3.604   0.000   5.174
   99        1.574   3.580   0.000   5.155
  100        1.574   3.580   0.000   5.155
  101        1.570   3.604   0.000   5.174
  102        1.570   3.604   0.000   5.174
  103        1.574   3.580   0.000   5.155
  104        1.574   3.580   0.000   5.155
  105        1.573   3.612   0.000   5.185
  106        1.573   3.612   0.000   5.185
  107        1.573   3.628   0.000   5.201
  108        1.573   3.628   0.000   5.201
  109        1.573   3.612   0.000   5.185
  110        1.573   3.612   0.000   5.185
  111        1.573   3.628   0.000   5.201
  112        1.573   3.628   0.000   5.201
  113        1.573   3.612   0.000   5.185
  114        1.573   3.612   0.000   5.185
  115        1.573   3.628   0.000   5.201
  116        1.573   3.628   0.000   5.201
  117        1.573   3.612   0.000   5.185
  118        1.573   3.612   0.000   5.185
  119        1.573   3.628   0.000   5.201
  120        1.573   3.628   0.000   5.201
  121        1.580   3.540   0.000   5.120
  122        1.580   3.541   0.000   5.121
  123        1.580   3.539   0.000   5.119
  124        1.580   3.540   0.000   5.120
  125        1.580   3.541   0.000   5.121
  126        1.580   3.539   0.000   5.119
  127        1.580   3.540   0.000   5.120
  128        1.580   3.541   0.000   5.121
  129        1.580   3.539   0.000   5.119
  130        1.580   3.540   0.000   5.120
  131        1.580   3.541   0.000   5.121
  132        1.580   3.539   0.000   5.119
  133        1.580   3.540   0.000   5.120
  134        1.580   3.541   0.000   5.121
  135        1.580   3.539   0.000   5.119
  136        1.580   3.540   0.000   5.120
  137        1.580   3.541   0.000   5.121
  138        1.580   3.539   0.000   5.119
  139        1.580   3.540   0.000   5.120
  140        1.580   3.541   0.000   5.121
  141        1.580   3.539   0.000   5.119
  142        1.580   3.540   0.000   5.120
  143        1.580   3.541   0.000   5.121
  144        1.580   3.539   0.000   5.119
  145        1.573   3.632   0.000   5.206
  146        1.573   3.632   0.000   5.206
  147        1.573   3.632   0.000   5.206
  148        1.573   3.632   0.000   5.206
  149        1.573   3.632   0.000   5.206
  150        1.573   3.632   0.000   5.206
  151        1.573   3.632   0.000   5.206
  152        1.573   3.632   0.000   5.206
  153        1.573   3.632   0.000   5.206
  154        1.573   3.632   0.000   5.206
  155        1.573   3.632   0.000   5.206
  156        1.573   3.632   0.000   5.206
  157        1.573   3.632   0.000   5.206
  158        1.573   3.632   0.000   5.206
  159        1.573   3.632   0.000   5.206
  160        1.573   3.632   0.000   5.206
  161        1.573   3.632   0.000   5.206
  162        1.573   3.632   0.000   5.206
  163        1.573   3.632   0.000   5.206
  164        1.573   3.632   0.000   5.206
  165        1.573   3.632   0.000   5.206
  166        1.573   3.632   0.000   5.206
  167        1.573   3.632   0.000   5.206
  168        1.573   3.632   0.000   5.206
  169        1.573   3.632   0.000   5.206
  170        1.573   3.632   0.000   5.206
  171        1.573   3.632   0.000   5.206
  172        1.573   3.632   0.000   5.206
  173        1.573   3.632   0.000   5.206
  174        1.573   3.632   0.000   5.206
  175        1.573   3.632   0.000   5.206
  176        1.573   3.632   0.000   5.206
  177        1.573   3.632   0.000   5.206
  178        1.573   3.632   0.000   5.206
  179        1.573   3.632   0.000   5.206
  180        1.573   3.632   0.000   5.206
  181        1.573   3.632   0.000   5.206
  182        1.573   3.632   0.000   5.206
  183        1.573   3.632   0.000   5.206
  184        1.573   3.632   0.000   5.206
  185        1.573   3.632   0.000   5.206
  186        1.573   3.632   0.000   5.206
  187        1.573   3.632   0.000   5.206
  188        1.573   3.632   0.000   5.206
  189        1.573   3.632   0.000   5.206
  190        1.573   3.632   0.000   5.206
  191        1.573   3.632   0.000   5.206
  192        1.573   3.632   0.000   5.206
  193        1.586   3.558   0.000   5.144
  194        1.586   3.558   0.000   5.144
  195        1.586   3.558   0.000   5.144
  196        1.586   3.558   0.000   5.144
  197        1.586   3.558   0.000   5.144
  198        1.586   3.558   0.000   5.144
  199        1.586   3.554   0.000   5.140
  200        1.586   3.554   0.000   5.140
  201        1.586   3.554   0.000   5.140
  202        1.586   3.554   0.000   5.140
  203        1.586   3.554   0.000   5.140
  204        1.586   3.554   0.000   5.140
  205        1.586   3.558   0.000   5.144
  206        1.586   3.558   0.000   5.144
  207        1.586   3.558   0.000   5.144
  208        1.586   3.558   0.000   5.144
  209        1.586   3.558   0.000   5.144
  210        1.586   3.558   0.000   5.144
  211        1.586   3.554   0.000   5.140
  212        1.586   3.554   0.000   5.140
  213        1.586   3.554   0.000   5.140
  214        1.586   3.554   0.000   5.140
  215        1.586   3.554   0.000   5.140
  216        1.586   3.554   0.000   5.140
  217        1.586   3.558   0.000   5.144
  218        1.586   3.558   0.000   5.144
  219        1.586   3.558   0.000   5.144
  220        1.586   3.558   0.000   5.144
  221        1.586   3.558   0.000   5.144
  222        1.586   3.558   0.000   5.144
  223        1.586   3.554   0.000   5.140
  224        1.586   3.554   0.000   5.140
  225        1.586   3.554   0.000   5.140
  226        1.586   3.554   0.000   5.140
  227        1.586   3.554   0.000   5.140
  228        1.586   3.554   0.000   5.140
  229        1.586   3.558   0.000   5.144
  230        1.586   3.558   0.000   5.144
  231        1.586   3.558   0.000   5.144
  232        1.586   3.558   0.000   5.144
  233        1.586   3.558   0.000   5.144
  234        1.586   3.558   0.000   5.144
  235        1.586   3.554   0.000   5.140
  236        1.586   3.554   0.000   5.140
  237        1.586   3.554   0.000   5.140
  238        1.586   3.554   0.000   5.140
  239        1.586   3.554   0.000   5.140
  240        1.586   3.554   0.000   5.140
  241        0.557   1.047   2.563   4.168
  242        0.557   1.047   2.563   4.168
  243        0.566   1.063   2.594   4.223
  244        0.566   1.063   2.594   4.223
  245        0.557   1.047   2.563   4.168
  246        0.557   1.047   2.563   4.168
  247        0.566   1.063   2.594   4.223
  248        0.566   1.063   2.594   4.223
  249        0.557   1.047   2.563   4.168
  250        0.557   1.047   2.563   4.168
  251        0.566   1.063   2.594   4.223
  252        0.566   1.063   2.594   4.223
  253        0.557   1.047   2.563   4.168
  254        0.557   1.047   2.563   4.168
  255        0.566   1.063   2.594   4.223
  256        0.566   1.063   2.594   4.223
--------------------------------------------------
tot        272.306 638.903  44.162 955.371
 


 magnetization (x)
 
# of ion       s       p       d       tot
------------------------------------------
    1        0.000   0.000   0.000   0.000
    2        0.000   0.000   0.000   0.000
    3        0.000   0.000   0.000   0.000
    4        0.000   0.000   0.000   0.000
    5        0.000   0.000   0.000   0.000
    6        0.000   0.000   0.000   0.000
    7        0.000   0.000   0.000   0.000
    8        0.000   0.000   0.000   0.000
    9        0.000   0.000   0.000   0.000
   10        0.000   0.000   0.000   0.000
   11        0.000   0.000   0.000   0.000
   12        0.000   0.000   0.000   0.000
   13        0.000   0.000   0.000   0.000
   14        0.000   0.000   0.000   0.000
   15        0.000   0.000   0.000   0.000
   16        0.000   0.000   0.000   0.000
   17        0.000   0.000   0.000   0.000
   18        0.000   0.000   0.000   0.000
   19        0.000   0.000   0.000   0.000
   20        0.000   0.000   0.000   0.000
   21        0.000   0.000   0.000   0.000
   22        0.000   0.000   0.000   0.000
   23        0.000   0.000   0.000   0.000
   24        0.000   0.000   0.000   0.000
   25        0.000   0.000   0.000   0.000
   26        0.000   0.000   0.000   0.000
   27        0.000   0.000   0.000   0.000
   28        0.000   0.000   0.000   0.000
   29        0.000   0.000   0.000   0.000
   30        0.000   0.000   0.000   0.000
   31        0.000   0.000   0.000   0.000
   32        0.000   0.000   0.000   0.000
   33        0.000   0.000   0.000   0.000
   34        0.000   0.000   0.000   0.000
   35        0.000   0.000   0.000   0.000
   36        0.000   0.000   0.000   0.000
   37        0.000   0.000   0.000   0.000
   38        0.000   0.000   0.000   0.000
   39        0.000   0.000   0.000   0.000
   40        0.000   0.000   0.000   0.000
   41        0.000   0.000   0.000   0.000
   42        0.000   0.000   0.000   0.000
   43        0.000   0.000   0.000   0.000
   44        0.000   0.000   0.000   0.000
   45        0.000   0.000   0.000   0.000
   46        0.000   0.000   0.000   0.000
   47        0.000   0.000   0.000   0.000
   48        0.000   0.000   0.000   0.000
   49        0.000   0.000   0.000   0.000
   50        0.000   0.000   0.000   0.000
   51        0.000   0.000   0.000   0.000
   52        0.000   0.000   0.000   0.000
   53        0.000   0.000   0.000   0.000
   54        0.000   0.000   0.000   0.000
   55        0.000   0.000   0.000   0.000
   56        0.000   0.000   0.000   0.000
   57        0.000   0.000   0.000   0.000
   58        0.000   0.000   0.000   0.000
   59        0.000   0.000   0.000   0.000
   60        0.000   0.000   0.000   0.000
   61        0.000   0.000   0.000   0.000
   62        0.000   0.000   0.000   0.000
   63        0.000   0.000   0.000   0.000
   64        0.000   0.000   0.000   0.000
   65        0.000  -0.000  -0.000  -0.000
   66        0.000  -0.000  -0.000  -0.000
   67        0.000  -0.000  -0.000  -0.000
   68        0.000  -0.000  -0.000  -0.000
   69        0.000  -0.000  -0.000  -0.000
   70        0.000  -0.000  -0.000  -0.000
   71        0.000  -0.000  -0.000  -0.000
   72        0.000  -0.000  -0.000  -0.000
   73       -0.000   0.000   0.000  -0.000
   74       -0.000   0.000   0.000  -0.000
   75       -0.000   0.000   0.000  -0.000
   76       -0.000   0.000   0.000  -0.000
   77       -0.000   0.000   0.000  -0.000
   78       -0.000   0.000   0.000  -0.000
   79       -0.000   0.000   0.000  -0.000
   80       -0.000   0.000   0.000  -0.000
   81       -0.000   0.000   0.000  -0.000
   82       -0.000   0.000   0.000  -0.000
   83       -0.000   0.000   0.000  -0.000
   84       -0.000   0.000   0.000  -0.000
   85       -0.000   0.000   0.000  -0.000
   86       -0.000   0.000   0.000  -0.000
   87       -0.000   0.000   0.000  -0.000
   88       -0.000   0.000   0.000  -0.000
   89        0.000   0.000   0.000   0.000
   90        0.000   0.000   0.000   0.000
   91        0.000   0.000   0.000   0.000
   92        0.000   0.000   0.000   0.000
   93        0.000   0.000   0.000   0.000
   94        0.000   0.000   0.000   0.000
   95        0.000   0.000   0.000   0.000
   96        0.000   0.000   0.000   0.000
   97        0.000   0.000   0.000   0.000
   98        0.000   0.000   0.000   0.000
   99        0.000   0.000   0.000   0.000
  100        0.000   0.000   0.000   0.000
  101        0.000   0.000   0.000   0.000
  102        0.000   0.000   0.000   0.000
  103        0.000   0.000   0.000   0.000
  104        0.000   0.000   0.000   0.000
  105       -0.000  -0.000   0.000  -0.000
  106       -0.000  -0.000   0.000  -0.000
  107       -0.000  -0.000   0.000  -0.000
  108       -0.000  -0.000   0.000  -0.000
  109       -0.000  -0.000   0.000  -0.000
  110       -0.000  -0.000   0.000  -0.000
  111       -0.000  -0.000   0.000  -0.000
  112       -0.000  -0.000   0.000  -0.000
  113       -0.000  -0.000   0.000  -0.000
  114       -0.000  -0.000   0.000  -0.000
  115       -0.000  -0.000   0.000  -0.000
  116       -0.000  -0.000   0.000  -0.000
  117       -0.000  -0.000   0.000  -0.000
  118       -0.000  -0.000   0.000  -0.000
  119       -0.000  -0.000   0.000  -0.000
  120       -0.000  -0.000   0.000  -0.000
  121       -0.000  -0.000   0.000  -0.000
  122       -0.000  -0.000   0.000  -0.000
  123       -0.000  -0.000   0.000  -0.000
  124       -0.000  -0.000   0.000  -0.000
  125       -0.000  -0.000   0.000  -0.000
  126       -0.000  -0.000   0.000  -0.000
  127       -0.000  -0.000   0.000  -0.000
  128       -0.000  -0.000   0.000  -0.000
  129       -0.000  -0.000   0.000  -0.000
  130       -0.000  -0.000   0.000  -0.000
  131       -0.000  -0.000   0.000  -0.000
  132       -0.000  -0.000   0.000  -0.000
  133       -0.000  -0.000   0.000  -0.000
  134       -0.000  -0.000   0.000  -0.000
  135       -0.000  -0.000   0.000  -0.000
  136       -0.000  -0.000   0.000  -0.000
  137       -0.000  -0.000   0.000  -0.000
  138       -0.000  -0.000   0.000  -0.000
  139       -0.000  -0.000   0.000  -0.000
  140       -0.000  -0.000   0.000  -0.000
  141       -0.000  -0.000   0.000  -0.000
  142       -0.000  -0.000   0.000  -0.000
  143       -0.000  -0.000   0.000  -0.000
  144       -0.000  -0.000   0.000  -0.000
  145        0.000  -0.000   0.000  -0.000
  146        0.000  -0.000   0.000  -0.000
  147        0.000  -0.000   0.000  -0.000
  148        0.000  -0.000   0.000  -0.000
  149        0.000  -0.000   0.000  -0.000
  150        0.000  -0.000   0.000  -0.000
  151        0.000  -0.000   0.000   0.000
  152        0.000  -0.000   0.000   0.000
  153        0.000  -0.000   0.000  -0.000
  154        0.000  -0.000   0.000   0.000
  155        0.000  -0.000   0.000   0.000
  156        0.000  -0.000   0.000  -0.000
  157        0.000  -0.000   0.000  -0.000
  158        0.000  -0.000   0.000  -0.000
  159        0.000  -0.000   0.000  -0.000
  160        0.000  -0.000   0.000  -0.000
  161        0.000  -0.000   0.000  -0.000
  162        0.000  -0.000   0.000  -0.000
  163        0.000  -0.000   0.000   0.000
  164        0.000  -0.000   0.000  -0.000
  165        0.000  -0.000   0.000  -0.000
  166        0.000  -0.000   0.000   0.000
  167        0.000  -0.000   0.000   0.000
  168        0.000  -0.000   0.000  -0.000
  169        0.000  -0.000   0.000  -0.000
  170        0.000  -0.000   0.000  -0.000
  171        0.000  -0.000   0.000  -0.000
  172        0.000  -0.000   0.000  -0.000
  173        0.000  -0.000   0.000  -0.000
  174        0.000  -0.000   0.000  -0.000
  175        0.000  -0.000   0.000   0.000
  176        0.000  -0.000   0.000  -0.000
  177        0.000  -0.000   0.000  -0.000
  178        0.000  -0.000   0.000   0.000
  179        0.000  -0.000   0.000   0.000
  180        0.000  -0.000   0.000  -0.000
  181        0.000  -0.000   0.000  -0.000
  182        0.000  -0.000   0.000  -0.000
  183        0.000  -0.000   0.000  -0.000
  184        0.000  -0.000   0.000  -0.000
  185        0.000  -0.000   0.000  -0.000
  186        0.000  -0.000   0.000  -0.000
  187        0.000  -0.000   0.000   0.000
  188        0.000  -0.000   0.000  -0.000
  189        0.000  -0.000   0.000  -0.000
  190        0.000  -0.000   0.000   0.000
  191        0.000  -0.000   0.000   0.000
  192        0.000  -0.000   0.000  -0.000
  193       -0.000  -0.000   0.000  -0.000
  194       -0.000  -0.000   0.000  -0.000
  195       -0.000  -0.000   0.000  -0.000
  196       -0.000  -0.000   0.000  -0.000
  197       -0.000  -0.000   0.000  -0.000
  198       -0.000  -0.000   0.000  -0.000
  199        0.000   0.000   0.000   0.000
  200        0.000   0.000   0.000   0.000
  201        0.000   0.000   0.000   0.000
  202        0.000   0.000   0.000   0.000
  203        0.000   0.000   0.000   0.000
  204        0.000   0.000   0.000   0.000
  205       -0.000  -0.000   0.000  -0.000
  206       -0.000  -0.000   0.000  -0.000
  207       -0.000  -0.000   0.000  -0.000
  208       -0.000  -0.000   0.000  -0.000
  209       -0.000  -0.000   0.000  -0.000
  210       -0.000  -0.000   0.000  -0.000
  211        0.000   0.000   0.000   0.000
  212        0.000   0.000   0.000   0.000
  213        0.000   0.000   0.000   0.000
  214        0.000   0.000   0.000   0.000
  215        0.000   0.000   0.000   0.000
  216        0.000   0.000   0.000   0.000
  217       -0.000  -0.000   0.000  -0.000
  218       -0.000  -0.000   0.000  -0.000
  219       -0.000  -0.000   0.000  -0.000
  220       -0.000  -0.000   0.000  -0.000
  221       -0.000  -0.000   0.000  -0.000
  222       -0.000  -0.000   0.000  -0.000
  223        0.000   0.000   0.000   0.000
  224        0.000   0.000   0.000   0.000
  225        0.000   0.000   0.000   0.000
  226        0.000   0.000   0.000   0.000
  227        0.000   0.000   0.000   0.000
  228        0.000   0.000   0.000   0.000
  229       -0.000  -0.000   0.000  -0.000
  230       -0.000  -0.000   0.000  -0.000
  231       -0.000  -0.000   0.000  -0.000
  232       -0.000  -0.000   0.000  -0.000
  233       -0.000  -0.000   0.000  -0.000
  234       -0.000  -0.000   0.000  -0.000
  235        0.000   0.000   0.000   0.000
  236        0.000   0.000   0.000   0.000
  237        0.000   0.000   0.000   0.000
  238        0.000   0.000   0.000   0.000
  239        0.000   0.000   0.000   0.000
  240        0.000   0.000   0.000   0.000
  241        0.000   0.000   0.000   0.000
  242        0.000   0.000   0.000   0.000
  243        0.000   0.000   0.000   0.000
  244        0.000   0.000   0.000   0.000
  245        0.000   0.000   0.000   0.000
  246        0.000   0.000   0.000   0.000
  247        0.000   0.000   0.000   0.000
  248        0.000   0.000   0.000   0.000
  249        0.000   0.000   0.000   0.000
  250        0.000   0.000   0.000   0.000
  251        0.000   0.000   0.000   0.000
  252        0.000   0.000   0.000   0.000
  253        0.000   0.000   0.000   0.000
  254        0.000   0.000   0.000   0.000
  255        0.000   0.000   0.000   0.000
  256        0.000   0.000   0.000   0.000
--------------------------------------------------
tot          0.000  -0.000   0.000  -0.000
 
 BZINTS: Fermi energy:  4.243764;********** electrons
         Band energy:***********;  BLOECHL correction:  0.000000

 total amount of memory used by VASP MPI-rank0   347375. kBytes
=======================================================================

   base      :      30000. kBytes
   nonl-proj :      73715. kBytes
   fftplans  :       6354. kBytes
   grid      :      18703. kBytes
   one-center:        902. kBytes
   wavefun   :     217701. kBytes
 
  
  
 General timing and accounting informations for this job:
 ========================================================
  
                  Total CPU time used (sec):     8653.922
                            User time (sec):     8605.564
                          System time (sec):       48.358
                         Elapsed time (sec):     8677.028
  
                   Maximum memory used (kb):     1282972.
                   Average memory used (kb):           0.
  
                          Minor page faults:       379922
                          Major page faults:            0
                 Voluntary context switches:        31763
