Wed Mar  2 17:13:45 MST 2022
 running on   90 total cores
 distrk:  each k-point on   90 cores,    1 groups
 distr:  one band on    9 cores,   10 groups
 using from now: INCAR     
 vasp.5.4.4.18Apr17-6-g9f103f2a35 (build Sep 23 2020 14:43:34) complex          
  
 POSCAR found type information on POSCAR  Al Ca Mg O  Ti
 POSCAR found :  5 types and     256 ions
 scaLAPACK will be used

 ----------------------------------------------------------------------------- 
|                                                                             |
|  ADVICE TO THIS USER RUNNING 'VASP/VAMP'   (HEAR YOUR MASTER'S VOICE ...):  |
|                                                                             |
|      You have a (more or less) 'large supercell' and for larger cells       |
|      it might be more efficient to use real space projection operators      |
|      So try LREAL= Auto  in the INCAR   file.                               |
|      Mind: If you want to do a very accurate calculations keep the          |
|      reciprocal projection scheme          (i.e. LREAL=.FALSE.)             |
|                                                                             |
 ----------------------------------------------------------------------------- 

 LDA part: xc-table for Pade appr. of Perdew
 POSCAR, INCAR and KPOINTS ok, starting setup
 FFT: planning ...
 WAVECAR not read
 entering main loop
       N       E                     dE             d eps       ncg     rms          rms(c)
DAV:   1     0.163240336468E+05    0.16324E+05   -0.39980E+05 54430   0.129E+03
DAV:   2     0.134253115960E+04   -0.14982E+05   -0.12700E+05 52730   0.387E+02
DAV:   3    -0.188571861488E+04   -0.32282E+04   -0.30639E+04 50880   0.188E+02
DAV:   4    -0.214673887912E+04   -0.26102E+03   -0.25551E+03 67320   0.608E+01
DAV:   5    -0.216067833545E+04   -0.13939E+02   -0.13879E+02 78640   0.149E+01    0.132E+02
DAV:   6    -0.165302501162E+04    0.50765E+03   -0.12380E+03 71950   0.509E+01    0.532E+01
DAV:   7    -0.167595516964E+04   -0.22930E+02   -0.22247E+02 62600   0.223E+01    0.450E+01
DAV:   8    -0.165116642310E+04    0.24789E+02   -0.34452E+01 60510   0.120E+01    0.362E+01
DAV:   9    -0.169440978815E+04   -0.43243E+02   -0.47272E+01 64120   0.103E+01    0.226E+01
DAV:  10    -0.179562902422E+04   -0.10122E+03   -0.66452E+01 56680   0.889E+00    0.177E+01
DAV:  11    -0.191115520547E+04   -0.11553E+03   -0.16585E+02 61020   0.130E+01    0.898E+00
DAV:  12    -0.192543920761E+04   -0.14284E+02   -0.26691E+01 60070   0.645E+00    0.613E+00
DAV:  13    -0.192619706608E+04   -0.75786E+00   -0.71100E+00 72410   0.372E+00    0.376E+00
DAV:  14    -0.192645720674E+04   -0.26014E+00   -0.14293E+00 59250   0.171E+00    0.219E+00
DAV:  15    -0.192649246800E+04   -0.35261E-01   -0.48336E-01 70080   0.931E-01    0.802E-01
DAV:  16    -0.192653002483E+04   -0.37557E-01   -0.91349E-02 62710   0.433E-01    0.551E-01
DAV:  17    -0.192654253323E+04   -0.12508E-01   -0.19724E-02 62180   0.220E-01    0.311E-01
DAV:  18    -0.192654528177E+04   -0.27485E-02   -0.11054E-02 66940   0.169E-01    0.132E-01
DAV:  19    -0.192654670538E+04   -0.14236E-02   -0.74478E-03 69380   0.117E-01    0.129E-01
DAV:  20    -0.192654651982E+04    0.18556E-03   -0.86048E-04 70300   0.546E-02    0.630E-02
DAV:  21    -0.192654652537E+04   -0.55462E-05   -0.59327E-04 67730   0.319E-02    0.167E-02
DAV:  22    -0.192654653164E+04   -0.62752E-05   -0.64580E-05 61170   0.163E-02    0.827E-03
DAV:  23    -0.192654653260E+04   -0.95695E-06   -0.24874E-05 63860   0.776E-03    0.641E-03
DAV:  24    -0.192654653103E+04    0.15684E-05   -0.43656E-06 75350   0.312E-03    0.377E-03
DAV:  25    -0.192654652954E+04    0.14897E-05   -0.17863E-06 66970   0.172E-03    0.151E-03
DAV:  26    -0.192654652899E+04    0.55060E-06   -0.30776E-07 49200   0.994E-04    0.171E-03
DAV:  27    -0.192654652883E+04    0.16394E-06   -0.22381E-07 41370   0.102E-03    0.827E-04
DAV:  28    -0.192654652887E+04   -0.45344E-07   -0.15921E-07 34510   0.640E-04
   1 F= -.19265465E+04 E0= -.19265465E+04  d E =0.000000E+00  mag=     0.0000
Wed Mar  2 19:38:24 MST 2022
Detailed performance metrics for this job will be available at https://metrics.hpc.arizona.edu/#job_viewer?action=show&realm=SUPREMM&resource_id=73&local_job_id=3160342 by 8am on 2022/03/03.
