Hibonite                                
           1
    11.457499    0.000000    0.000000
    -5.728749    9.922485    0.000000
     0.000000    0.000000   22.404704
   Al   Ca   Mg   O    Ti
  64   8  16 152  16
Direct configuration=     1
   0.00000211  0.99999789  0.00032628
   0.99999789  0.00000211  0.50032628
   0.00000212  0.49999789  0.00032629
   0.99999788  0.50000210  0.50032629
   0.50000211  0.99999788  0.00032629
   0.49999789  0.00000212  0.50032629
   0.50000211  0.49999789  0.00032629
   0.49999789  0.50000211  0.50032629
   0.99999861  0.00000139  0.23856119
   0.00000139  0.99999861  0.73856117
   0.99999871  0.50000152  0.23856118
   0.00000129  0.49999847  0.73856116
   0.49999847  0.00000129  0.23856118
   0.50000153  0.99999871  0.73856116
   0.49999854  0.50000146  0.23856118
   0.50000146  0.49999854  0.73856115
   0.41673845  0.08326152  0.10504862
   0.41673848  0.33347034  0.10504806
   0.16652986  0.08326160  0.10504804
   0.08326152  0.41673848  0.60504865
   0.08326160  0.16652986  0.60504807
   0.33347035  0.41673851  0.60504808
   0.08179602  0.41820398  0.89498958
   0.33641343  0.41820340  0.89499211
   0.08179670  0.16358676  0.89499212
   0.41820396  0.08179601  0.39498953
   0.16358676  0.08179670  0.39499208
   0.41820338  0.33641342  0.39499206
   0.41673841  0.58326156  0.10504866
   0.41673837  0.83347008  0.10504809
   0.16652990  0.58326162  0.10504809
   0.08326152  0.91673842  0.60504862
   0.08326147  0.66652964  0.60504805
   0.33347036  0.91673847  0.60504805
   0.08179602  0.91820393  0.89498961
   0.33641344  0.91820336  0.89499213
   0.08179659  0.66358657  0.89499213
   0.41820392  0.58179605  0.39498950
   0.16358679  0.58179672  0.39499204
   0.41820328  0.83641319  0.39499204
   0.91673845  0.08326152  0.10504859
   0.91673850  0.33347038  0.10504803
   0.66652963  0.08326147  0.10504803
   0.58326159  0.41673844  0.60504869
   0.58326163  0.16652991  0.60504811
   0.83347006  0.41673837  0.60504811
   0.58179608  0.41820395  0.89498955
   0.83641317  0.41820328  0.89499208
   0.58179672  0.16358680  0.89499208
   0.91820395  0.08179602  0.39498956
   0.66358656  0.08179659  0.39499209
   0.91820338  0.33641345  0.39499209
   0.91673845  0.58326151  0.10504862
   0.91673840  0.83347013  0.10504804
   0.66652967  0.58326148  0.10504806
   0.58326152  0.91673843  0.60504865
   0.58326150  0.66652968  0.60504808
   0.83347008  0.91673834  0.60504807
   0.58179602  0.91820393  0.89498958
   0.83641318  0.91820325  0.89499212
   0.58179661  0.66358660  0.89499211
   0.91820395  0.58179601  0.39498953
   0.66358658  0.58179659  0.39499206
   0.91820330  0.83641324  0.39499208
   0.33329114  0.16670888  0.25987654
   0.16670889  0.33329116  0.75987659
   0.33329116  0.66670884  0.25987654
   0.16670893  0.83329108  0.75987659
   0.83329100  0.16670890  0.25987655
   0.66670885  0.33329118  0.75987658
   0.83329107  0.66670885  0.25987654
   0.66670889  0.83329110  0.75987659
   0.16666850  0.33333163  0.02596047
   0.33333161  0.16666850  0.52596047
   0.33333499  0.16666511  0.97404912
   0.16666511  0.33333501  0.47404912
   0.16666847  0.83333153  0.02596049
   0.33333156  0.66666845  0.52596045
   0.33333494  0.66666506  0.97404916
   0.16666508  0.83333492  0.47404910
   0.66666845  0.33333157  0.02596045
   0.83333146  0.16666845  0.52596049
   0.83333484  0.16666506  0.97404910
   0.66666507  0.33333496  0.47404916
   0.66666842  0.83333148  0.02596047
   0.83333145  0.66666839  0.52596047
   0.83333484  0.66666500  0.97404912
   0.66666504  0.83333487  0.47404912
   0.00000155  0.99999845  0.15321530
   0.99999845  0.00000155  0.65321528
   0.00000102  0.99999898  0.85047773
   0.99999898  0.00000102  0.35047766
   0.00000151  0.49999839  0.15321528
   0.99999848  0.50000160  0.65321525
   0.00000106  0.49999903  0.85047775
   0.99999893  0.50000096  0.35047768
   0.50000161  0.99999848  0.15321528
   0.49999839  0.00000152  0.65321525
   0.50000096  0.99999894  0.85047775
   0.49999904  0.00000106  0.35047768
   0.50000158  0.49999841  0.15321526
   0.49999841  0.50000158  0.65321524
   0.50000099  0.49999901  0.85047776
   0.49999901  0.50000099  0.35047770
   0.16666756  0.33333239  0.93757339
   0.33333237  0.16666755  0.43757339
   0.33333594  0.16666397  0.06193113
   0.16666398  0.33333596  0.56193111
   0.16666758  0.83333243  0.93757336
   0.33333239  0.66666761  0.43757344
   0.33333596  0.66666404  0.06193106
   0.16666400  0.83333600  0.56193115
   0.66666762  0.33333241  0.93757344
   0.83333235  0.16666756  0.43757336
   0.83333592  0.16666398  0.06193117
   0.66666405  0.33333598  0.56193104
   0.66666766  0.83333243  0.93757339
   0.83333240  0.66666763  0.43757339
   0.83333598  0.66666406  0.06193113
   0.66666410  0.83333601  0.56193111
   0.08930739  0.41069254  0.24948306
   0.08933231  0.17861119  0.24948417
   0.32138857  0.41066756  0.24948417
   0.41069253  0.08930738  0.74948299
   0.41066754  0.32138856  0.74948411
   0.17861118  0.08933229  0.74948410
   0.08930731  0.91069267  0.24948305
   0.08933231  0.67861128  0.24948417
   0.32138869  0.91066767  0.24948417
   0.41069249  0.58930747  0.74948300
   0.41066756  0.82138864  0.74948411
   0.17861138  0.58933240  0.74948411
   0.58930749  0.41069250  0.24948306
   0.58933241  0.17861139  0.24948417
   0.82138865  0.41066757  0.24948417
   0.91069269  0.08930732  0.74948299
   0.91066768  0.32138869  0.74948410
   0.67861131  0.08933233  0.74948410
   0.58930742  0.91069261  0.24948306
   0.58933240  0.67861141  0.24948417
   0.82138882  0.91066770  0.24948417
   0.91069262  0.58930743  0.74948299
   0.91066772  0.82138884  0.74948410
   0.67861143  0.58933241  0.74948411
   0.07382554  0.42617434  0.05558771
   0.07382573  0.14764501  0.05558725
   0.35235490  0.42617418  0.05558723
   0.42617433  0.07382555  0.55558769
   0.42617418  0.35235489  0.55558721
   0.14764502  0.07382573  0.55558724
   0.42577437  0.07422554  0.94612156
   0.14845580  0.07422460  0.94612159
   0.42577532  0.35154410  0.94612162
   0.07422553  0.42577439  0.44612156
   0.35154411  0.42577532  0.44612162
   0.07422460  0.14845579  0.44612159
   0.07382557  0.92617439  0.05558771
   0.07382573  0.64764503  0.05558723
   0.35235490  0.92617424  0.05558723
   0.42617439  0.57382561  0.55558770
   0.42617422  0.85235494  0.55558724
   0.14764505  0.57382578  0.55558724
   0.42577442  0.57422558  0.94612156
   0.14845583  0.57422464  0.94612160
   0.42577536  0.85154417  0.94612160
   0.07422554  0.92577442  0.44612156
   0.35154411  0.92577536  0.44612162
   0.07422461  0.64845582  0.44612162
   0.57382558  0.42617439  0.05558771
   0.57382578  0.14764505  0.05558725
   0.85235498  0.42617422  0.05558725
   0.92617447  0.07382560  0.55558770
   0.92617429  0.35235491  0.55558722
   0.64764506  0.07382575  0.55558722
   0.92577450  0.07422557  0.94612156
   0.64845585  0.07422463  0.94612162
   0.92577541  0.35154412  0.94612162
   0.57422555  0.42577442  0.44612156
   0.85154420  0.42577536  0.44612160
   0.57422464  0.14845583  0.44612160
   0.57382562  0.92617444  0.05558771
   0.57382579  0.64764505  0.05558723
   0.85235497  0.92617426  0.05558725
   0.92617447  0.57382565  0.55558769
   0.92617431  0.85235498  0.55558724
   0.64764508  0.57382581  0.55558721
   0.92577449  0.57422561  0.94612156
   0.64845587  0.57422468  0.94612162
   0.92577544  0.85154420  0.94612159
   0.57422558  0.92577446  0.44612156
   0.85154419  0.92577539  0.44612159
   0.57422465  0.64845584  0.44612162
   0.25289931  0.24710058  0.15000955
   0.25289863  0.00578935  0.15001089
   0.49421077  0.24710136  0.15001092
   0.24710058  0.25289931  0.65000952
   0.24710136  0.49421074  0.65001089
   0.00578936  0.25289863  0.65001086
   0.24682762  0.25317229  0.84899722
   0.00635593  0.25317490  0.84899223
   0.24682509  0.49364415  0.84899221
   0.25317228  0.24682762  0.34899718
   0.49364418  0.24682509  0.34899216
   0.25317490  0.00635592  0.34899219
   0.25289921  0.74710076  0.15000961
   0.25289847  0.50578900  0.15001097
   0.49421098  0.74710152  0.15001097
   0.24710060  0.75289942  0.65000950
   0.24710119  0.99421042  0.65001083
   0.00578954  0.75289878  0.65001083
   0.24682765  0.75317237  0.84899724
   0.00635608  0.75317502  0.84899225
   0.24682495  0.99364389  0.84899225
   0.25317221  0.74682776  0.34899714
   0.49364433  0.74682522  0.34899213
   0.25317478  0.50635564  0.34899213
   0.75289940  0.24710057  0.15000953
   0.75289874  0.00578952  0.15001086
   0.99421050  0.24710122  0.15001086
   0.74710083  0.25289923  0.65000957
   0.74710157  0.49421100  0.65001094
   0.50578902  0.25289847  0.65001094
   0.74682783  0.25317223  0.84899719
   0.50635566  0.25317478  0.84899218
   0.74682526  0.49364435  0.84899218
   0.75317235  0.24682762  0.34899720
   0.99364396  0.24682498  0.34899221
   0.75317498  0.00635605  0.34899221
   0.75289935  0.74710068  0.15000955
   0.75289859  0.50578925  0.15001092
   0.99421062  0.74710136  0.15001089
   0.74710075  0.75289941  0.65000952
   0.74710138  0.99421058  0.65001086
   0.50578927  0.75289863  0.65001089
   0.74682778  0.75317237  0.84899722
   0.50635586  0.75317490  0.84899221
   0.74682511  0.99364402  0.84899223
   0.75317231  0.74682771  0.34899718
   0.99364405  0.74682509  0.34899219
   0.75317486  0.50635584  0.34899216
   0.33333854  0.16666220  0.81221780
   0.16666221  0.33333856  0.31221780
   0.16666938  0.33333153  0.18626136
   0.33333151  0.16666938  0.68626134
   0.33333823  0.66666177  0.81221778
   0.16666202  0.83333799  0.31221781
   0.16666915  0.83333086  0.18626134
   0.33333114  0.66666886  0.68626136
   0.83333791  0.16666199  0.81221781
   0.66666178  0.33333825  0.31221778
   0.66666887  0.33333116  0.18626138
   0.83333078  0.16666912  0.68626132
   0.83333775  0.66666146  0.81221780
   0.66666149  0.83333778  0.31221780
   0.66666852  0.83333060  0.18626136
   0.83333057  0.66666849  0.68626134
